                         Program Version 5.0.3 -  RELEASE  -
|  1> ! DLPNO-CCSD(T) cc-pVTZ cc-pVTZ/C TIGHTPNO TIGHTSCF
|  2> %maxcore 10000
|  3> %pal
|  4> nprocs 16
|  5> end
|  6> *xyz -1 1
|  7> H 4.850702572198 12.929978235016 7.689207272938
|  8> C 5.346392000000 11.988262000000 7.873225000000
|  9> H 5.818917000000 11.687204000000 6.932850000000
| 10> H 4.604958000000 11.216892000000 8.098963000000
| 11> C 6.387474000000 11.928130000000 8.969919000000
| 12> H 5.903590000000 12.002705000000 9.946992000000
| 13> H 7.075298000000 12.768926000000 8.882044000000
| 14> C 7.142409000000 10.602734000000 8.882643000000
| 15> H 7.892207000000 10.644706000000 8.097099000000
| 16> H 6.447500000000 9.809447000000 8.614142000000
| 17> N 7.759930000000 10.161740000000 10.123856000000
| 18> H 7.531729000000 9.237844000000 10.490097000000
| 19> C 8.665316000000 10.823272000000 10.825154000000
| 20> N 9.186265000000 11.968733000000 10.354159000000
| 21> H 9.469935000000 11.856414000000 9.373770000000
| 22> H 9.971142000000 12.286641000000 10.899727000000
| 23> N 9.004891000000 10.351892000000 12.014456000000
| 24> H 9.687020000000 10.828265000000 12.590405000000
| 25> H 8.669327000000 9.431744000000 12.269270000000
| 26> C 13.493881000000 9.970208000000 8.967430000000
| 27> H 13.996369000000 9.953698000000 9.924883000000
| 28> H 14.096556000000 10.339812000000 8.148559000000
| 29> C 12.133279000000 10.356834000000 9.001967000000
| 30> C 11.425665000000 10.733524000000 7.685994000000
| 31> O 12.058889000000 10.681933000000 6.627220000000
| 32> O 10.210209000000 11.064087000000 7.813054000000
| 33> O 11.463511000000 10.256205000000 10.032459000000
| 34> C 11.182707000000 7.973917000000 10.354046000000
| 35> H 10.773313000000 8.146612000000 11.336218000000
| 36> C 12.499514000000 7.791287000000 10.192241000000
| 37> H 13.197070000000 7.884616000000 11.002894000000
| 38> C 13.077512000000 7.812243000000 8.898545000000
| 39> C 12.159935000000 7.475235000000 7.792702000000
| 40> H 12.606512000000 7.246828000000 6.835511000000
| 41> C 10.844316000000 7.409302000000 7.970150000000
| 42> H 10.193336000000 7.140446000000 7.144846000000
| 43> C 10.182694000000 7.780194000000 9.255209000000
| 44> H 9.662105000000 8.724991000000 9.076430000000
| 45> O 9.232277000000 6.791093000000 9.625134000000
| 46> H 8.709838000000 7.118899000000 10.405409000000
| 47> C 14.531322000000 7.361560000000 8.741091000000
| 48> O 15.192345000000 7.157029000000 9.779774000000
| 49> O 14.949009000000 7.263017000000 7.564344000000
| 50> *
| 51>
| 52>                          ****END OF INPUT****

CARTESIAN COORDINATES (ANGSTROEM)
---------------------------------
  H      4.850703   12.929978    7.689207
  C      5.346392   11.988262    7.873225
  H      5.818917   11.687204    6.932850
  H      4.604958   11.216892    8.098963
  C      6.387474   11.928130    8.969919
  H      5.903590   12.002705    9.946992
  H      7.075298   12.768926    8.882044
  C      7.142409   10.602734    8.882643
  H      7.892207   10.644706    8.097099
  H      6.447500    9.809447    8.614142
  N      7.759930   10.161740   10.123856
  H      7.531729    9.237844   10.490097
  C      8.665316   10.823272   10.825154
  N      9.186265   11.968733   10.354159
  H      9.469935   11.856414    9.373770
  H      9.971142   12.286641   10.899727
  N      9.004891   10.351892   12.014456
  H      9.687020   10.828265   12.590405
  H      8.669327    9.431744   12.269270
  C     13.493881    9.970208    8.967430
  H     13.996369    9.953698    9.924883
  H     14.096556   10.339812    8.148559
  C     12.133279   10.356834    9.001967
  C     11.425665   10.733524    7.685994
  O     12.058889   10.681933    6.627220
  O     10.210209   11.064087    7.813054
  O     11.463511   10.256205   10.032459
  C     11.182707    7.973917   10.354046
  H     10.773313    8.146612   11.336218
  C     12.499514    7.791287   10.192241
  H     13.197070    7.884616   11.002894
  C     13.077512    7.812243    8.898545
  C     12.159935    7.475235    7.792702
  H     12.606512    7.246828    6.835511
  C     10.844316    7.409302    7.970150
  H     10.193336    7.140446    7.144846
  C     10.182694    7.780194    9.255209
  H      9.662105    8.724991    9.076430
  O      9.232277    6.791093    9.625134
  H      8.709838    7.118899   10.405409
  C     14.531322    7.361560    8.741091
  O     15.192345    7.157029    9.779774
  O     14.949009    7.263017    7.564344

 Total Charge           Charge          ....   -1
 Multiplicity           Mult            ....    1
 Number of Electrons    NEL             ....  174
 Basis Dimension        Dim             ....  970

ORBITAL ENERGIES
----------------

  NO   OCC          E(Eh)            E(eV)
   0   2.0000     -20.470955      -557.0430
   1   2.0000     -20.400885      -555.1363
   2   2.0000     -20.344721      -553.6080
   3   2.0000     -20.335508      -553.3573
   4   2.0000     -20.296271      -552.2896
   5   2.0000     -20.291467      -552.1589
   6   2.0000     -15.577694      -423.8906
   7   2.0000     -15.570490      -423.6946
   8   2.0000     -15.526802      -422.5058
   9   2.0000     -11.361625      -309.1655
  10   2.0000     -11.217265      -305.2373
  11   2.0000     -11.177924      -304.1668
  12   2.0000     -11.176445      -304.1265
  13   2.0000     -11.172382      -304.0160
  14   2.0000     -11.168337      -303.9059
  15   2.0000     -11.164230      -303.7941
  16   2.0000     -11.146690      -303.3169
  17   2.0000     -11.134772      -302.9926
  18   2.0000     -11.114844      -302.4503
  19   2.0000     -11.099671      -302.0374
  20   2.0000     -11.096042      -301.9387
  21   2.0000     -11.092013      -301.8290
  22   2.0000     -11.082725      -301.5763
  23   2.0000      -1.323061       -36.0023
  24   2.0000      -1.267684       -34.4954
  25   2.0000      -1.250792       -34.0358
  26   2.0000      -1.213872       -33.0311
  27   2.0000      -1.190677       -32.4000
  28   2.0000      -1.182456       -32.1763
  29   2.0000      -1.159036       -31.5390
  30   2.0000      -1.118803       -30.4442
  31   2.0000      -1.074968       -29.2514
  32   2.0000      -1.019202       -27.7339
  33   2.0000      -1.010165       -27.4880
  34   2.0000      -0.906052       -24.6549
  35   2.0000      -0.896671       -24.3997
  36   2.0000      -0.885130       -24.0856
  37   2.0000      -0.845097       -22.9963
  38   2.0000      -0.818892       -22.2832
  39   2.0000      -0.772026       -21.0079
  40   2.0000      -0.746583       -20.3156
  41   2.0000      -0.734251       -19.9800
  42   2.0000      -0.719946       -19.5907
  43   2.0000      -0.691560       -18.8183
  44   2.0000      -0.688126       -18.7249
  45   2.0000      -0.635910       -17.3040
  46   2.0000      -0.622553       -16.9405
  47   2.0000      -0.601537       -16.3687
  48   2.0000      -0.598434       -16.2842
  49   2.0000      -0.595006       -16.1909
  50   2.0000      -0.589945       -16.0532
  51   2.0000      -0.574811       -15.6414
  52   2.0000      -0.560943       -15.2640
  53   2.0000      -0.549099       -14.9417
  54   2.0000      -0.522814       -14.2265
  55   2.0000      -0.520079       -14.1521
  56   2.0000      -0.510901       -13.9023
  57   2.0000      -0.496850       -13.5200
  58   2.0000      -0.494842       -13.4653
  59   2.0000      -0.480055       -13.0630
  60   2.0000      -0.477986       -13.0066
  61   2.0000      -0.464464       -12.6387
  62   2.0000      -0.462150       -12.5757
  63   2.0000      -0.457001       -12.4356
  64   2.0000      -0.446035       -12.1372
  65   2.0000      -0.438780       -11.9398
  66   2.0000      -0.429624       -11.6907
  67   2.0000      -0.429259       -11.6807
  68   2.0000      -0.414691       -11.2843
  69   2.0000      -0.412168       -11.2157
  70   2.0000      -0.399142       -10.8612
  71   2.0000      -0.398474       -10.8430
  72   2.0000      -0.388062       -10.5597
  73   2.0000      -0.371345       -10.1048
  74   2.0000      -0.367649       -10.0042
  75   2.0000      -0.355457        -9.6725
  76   2.0000      -0.335855        -9.1391
  77   2.0000      -0.327893        -8.9224
  78   2.0000      -0.288133        -7.8405
  79   2.0000      -0.265889        -7.2352
  80   2.0000      -0.244162        -6.6440
  81   2.0000      -0.240950        -6.5566
  82   2.0000      -0.228951        -6.2301
  83   2.0000      -0.218164        -5.9365
  84   2.0000      -0.210123        -5.7178
  85   2.0000      -0.197161        -5.3650
  86   2.0000      -0.165639        -4.5073
  87   0.0000       0.139885         3.8065
  88   0.0000       0.180070         4.9000
  89   0.0000       0.189585         5.1589
  90   0.0000       0.199129         5.4186
  91   0.0000       0.212084         5.7711

MULLIKEN ATOMIC CHARGES
-----------------------
   0 H :    0.110699
   1 C :   -0.307367
   2 H :    0.106248
   3 H :    0.074069
   4 C :   -0.143323
   5 H :    0.078281
   6 H :    0.121012
   7 C :   -0.107737
   8 H :    0.176131
   9 H :    0.105764
  10 N :   -0.156068
  11 H :    0.162150
  12 C :    0.356965
  13 N :   -0.266016
  14 H :    0.260740
  15 H :    0.151468
  16 N :   -0.226890
  17 H :    0.203914
  18 H :    0.173265
  19 C :   -0.332599
  20 H :    0.137472
  21 H :    0.157569
  22 C :    0.244075
  23 C :    0.382206
  24 O :   -0.511809
  25 O :   -0.631371
  26 O :   -0.529483
  27 C :   -0.065294
  28 H :    0.069171
  29 C :   -0.188873
  30 H :    0.152774
  31 C :    0.051944
  32 C :   -0.168220
  33 H :    0.180875
  34 C :   -0.181984
  35 H :    0.127278
  36 C :    0.172401
  37 H :    0.079171
  38 O :   -0.427494
  39 H :    0.181217
  40 C :    0.402963
  41 O :   -0.589090
  42 O :   -0.586204
Sum of atomic charges:   -1.0000000

LOEWDIN ATOMIC CHARGES
----------------------
   0 H :   -0.035665
   1 C :    0.110295
   2 H :   -0.017613
   3 H :   -0.031684
   4 C :    0.046554
   5 H :   -0.034376
   6 H :   -0.024013
   7 C :    0.037470
   8 H :   -0.016170
   9 H :   -0.020097
  10 N :    0.431746
  11 H :   -0.060891
  12 C :   -0.253431
  13 N :    0.451202
  14 H :   -0.089521
  15 H :   -0.070395
  16 N :    0.485610
  17 H :   -0.048096
  18 H :   -0.062542
  19 C :    0.130406
  20 H :   -0.047045
  21 H :   -0.037526
  22 C :   -0.346806
  23 C :   -0.652812
  24 O :   -0.003530
  25 O :   -0.076961
  26 O :    0.096977
  27 C :    0.038144
  28 H :   -0.063444
  29 C :    0.015460
  30 H :   -0.029768
  31 C :    0.027430
  32 C :    0.069028
  33 H :   -0.016843
  34 C :    0.038810
  35 H :   -0.036954
  36 C :   -0.161158
  37 H :   -0.042777
  38 O :    0.296604
  39 H :   -0.185655
  40 C :   -0.661384
  41 O :   -0.076076
  42 O :   -0.072502

  Mayer bond orders larger than 0.100000
B(  0-H ,  1-C ) :   0.9846 B(  1-C ,  2-H ) :   0.9796 B(  1-C ,  3-H ) :   0.9861
B(  1-C ,  4-C ) :   0.9497 B(  4-C ,  5-H ) :   0.9863 B(  4-C ,  6-H ) :   0.9733
B(  4-C ,  7-C ) :   0.9532 B(  7-C ,  8-H ) :   0.9428 B(  7-C ,  9-H ) :   0.9864
B(  7-C , 10-N ) :   0.9096 B( 10-N , 11-H ) :   0.9739 B( 10-N , 12-C ) :   1.3724
B( 12-C , 13-N ) :   1.3311 B( 12-C , 16-N ) :   1.3540 B( 13-N , 14-H ) :   0.8547
B( 13-N , 15-H ) :   0.9777 B( 14-H , 25-O ) :   0.1321 B( 16-N , 17-H ) :   0.9551
B( 16-N , 18-H ) :   0.9632 B( 19-C , 20-H ) :   0.9684 B( 19-C , 21-H ) :   0.9535
B( 19-C , 22-C ) :   1.1307 B( 19-C , 31-C ) :   0.6121 B( 22-C , 23-C ) :   0.8862
B( 22-C , 26-O ) :   1.7594 B( 23-C , 24-O ) :   1.9340 B( 23-C , 25-O ) :   1.5838
B( 27-C , 28-H ) :   0.9765 B( 27-C , 29-C ) :   1.6908 B( 27-C , 36-C ) :   0.9551
B( 29-C , 30-H ) :   0.9643 B( 29-C , 31-C ) :   1.0848 B( 31-C , 32-C ) :   1.0181
B( 31-C , 40-C ) :   0.8285 B( 31-C , 41-O ) :  -0.1083 B( 31-C , 42-O ) :  -0.1253
B( 32-C , 33-H ) :   0.9455 B( 32-C , 34-C ) :   1.7832 B( 34-C , 35-H ) :   0.9777
B( 34-C , 36-C ) :   0.9849 B( 36-C , 37-H ) :   0.9796 B( 36-C , 38-O ) :   0.9336
B( 38-O , 39-H ) :   1.0137 B( 40-C , 41-O ) :   1.8565 B( 40-C , 42-O ) :   1.8675

E(0)                                       ...  -1154.627479290
E(0)                                       ...  -1154.627479290
E(CORR)(strong-pairs)                      ...     -4.400862478
E(CORR)(weak-pairs)                        ...     -0.008542724
E(CORR)(corrected)                         ...     -4.409405202
E(TOT)                                     ...  -1159.036884493
E(CCSD(T))                                 ...  -1159.236706491
FINAL SINGLE POINT ENERGY     -1159.236706491319

DIPOLE MOMENT
-------------
                                X             Y             Z
Electronic contribution:     22.32312      -8.87143      -0.08634
Nuclear contribution   :    -31.55377      12.22703       5.14731
                        -----------------------------------------
Total Dipole Moment    :     -9.23065       3.35560       5.06098
                        -----------------------------------------
Magnitude (a.u.)       :     11.04891
Magnitude (Debye)      :     28.08409

Rotational constants in cm-1:     0.015909     0.005158     0.004890
Rotational constants in MHz :   476.936663   154.618959   146.610320

                             ****ORCA TERMINATED NORMALLY****
TOTAL RUN TIME: 0 days 2 hours 58 minutes 31 seconds 114 msec
