                         Program Version 5.0.3 -  RELEASE  -
|  1> ! DLPNO-CCSD(T) cc-pVQZ cc-pVQZ/C TIGHTPNO TIGHTSCF
|  2> %maxcore 10000
|  3> %pal
|  4> nprocs 32
|  5> end
|  6> *xyz -1 1
|  7> H 4.321711229449 12.904788055622 8.261157219713
|  8> C 4.604535000000 11.906797000000 8.561864000000
|  9> H 5.197294000000 11.475739000000 7.746407000000
| 10> H 3.713914000000 11.280293000000 8.649403000000
| 11> C 5.379020000000 11.708409000000 9.846046000000
| 12> H 5.565921000000 10.636074000000 9.946973000000
| 13> H 4.754385000000 12.000268000000 10.695458000000
| 14> C 6.712556000000 12.434304000000 9.859837000000
| 15> H 6.618558000000 13.427913000000 10.300677000000
| 16> H 7.036557000000 12.582115000000 8.832895000000
| 17> N 7.803151000000 11.720012000000 10.492355000000
| 18> H 8.575493000000 11.454796000000 9.869280000000
| 19> C 8.070398000000 11.735588000000 11.782575000000
| 20> N 7.126527000000 12.106742000000 12.670792000000
| 21> H 6.166797000000 11.913658000000 12.451535000000
| 22> H 7.400964000000 12.023888000000 13.641174000000
| 23> N 9.270223000000 11.424433000000 12.219335000000
| 24> H 9.445966000000 11.490344000000 13.217512000000
| 25> H 10.005232000000 11.139135000000 11.573476000000
| 26> C 13.010530000000 10.618185000000 9.213618000000
| 27> H 13.621354000000 10.572567000000 10.100479000000
| 28> H 13.506538000000 10.872654000000 8.290378000000
| 29> C 11.664055000000 10.620126000000 9.349211000000
| 30> C 10.723895000000 11.013491000000 8.212906000000
| 31> O 11.140585000000 11.028437000000 7.027903000000
| 32> O 9.558582000000 11.348626000000 8.508915000000
| 33> O 11.095138000000 10.261065000000 10.472790000000
| 34> C 11.158945000000 8.315064000000 10.748393000000
| 35> H 10.620913000000 8.336186000000 11.687817000000
| 36> C 12.561722000000 8.256495000000 10.767369000000
| 37> H 13.082057000000 8.578832000000 11.652352000000
| 38> C 13.243714000000 8.051164000000 9.616804000000
| 39> C 12.557142000000 7.492443000000 8.456774000000
| 40> H 13.176559000000 7.183357000000 7.624992000000
| 41> C 11.247838000000 7.276680000000 8.471361000000
| 42> H 10.759753000000 6.755133000000 7.658295000000
| 43> C 10.378841000000 7.704304000000 9.605153000000
| 44> H 9.724176000000 8.504860000000 9.250376000000
| 45> O 9.613544000000 6.597956000000 10.009793000000
| 46> H 8.874926000000 6.907041000000 10.633941000000
| 47> C 14.767670000000 8.060081000000 9.592275000000
| 48> O 15.359489000000 8.200984000000 10.691670000000
| 49> O 15.318119000000 7.894659000000 8.498113000000
| 50> *
| 51>
| 52>                          ****END OF INPUT****

CARTESIAN COORDINATES (ANGSTROEM)
---------------------------------
  H      4.321711   12.904788    8.261157
  C      4.604535   11.906797    8.561864
  H      5.197294   11.475739    7.746407
  H      3.713914   11.280293    8.649403
  C      5.379020   11.708409    9.846046
  H      5.565921   10.636074    9.946973
  H      4.754385   12.000268   10.695458
  C      6.712556   12.434304    9.859837
  H      6.618558   13.427913   10.300677
  H      7.036557   12.582115    8.832895
  N      7.803151   11.720012   10.492355
  H      8.575493   11.454796    9.869280
  C      8.070398   11.735588   11.782575
  N      7.126527   12.106742   12.670792
  H      6.166797   11.913658   12.451535
  H      7.400964   12.023888   13.641174
  N      9.270223   11.424433   12.219335
  H      9.445966   11.490344   13.217512
  H     10.005232   11.139135   11.573476
  C     13.010530   10.618185    9.213618
  H     13.621354   10.572567   10.100479
  H     13.506538   10.872654    8.290378
  C     11.664055   10.620126    9.349211
  C     10.723895   11.013491    8.212906
  O     11.140585   11.028437    7.027903
  O      9.558582   11.348626    8.508915
  O     11.095138   10.261065   10.472790
  C     11.158945    8.315064   10.748393
  H     10.620913    8.336186   11.687817
  C     12.561722    8.256495   10.767369
  H     13.082057    8.578832   11.652352
  C     13.243714    8.051164    9.616804
  C     12.557142    7.492443    8.456774
  H     13.176559    7.183357    7.624992
  C     11.247838    7.276680    8.471361
  H     10.759753    6.755133    7.658295
  C     10.378841    7.704304    9.605153
  H      9.724176    8.504860    9.250376
  O      9.613544    6.597956   10.009793
  H      8.874926    6.907041   10.633941
  C     14.767670    8.060081    9.592275
  O     15.359489    8.200984   10.691670
  O     15.318119    7.894659    8.498113

 Total Charge           Charge          ....   -1
 Multiplicity           Mult            ....    1
 Number of Electrons    NEL             ....  174
 Basis Dimension        Dim             .... 1865

ORBITAL ENERGIES
----------------

  NO   OCC          E(Eh)            E(eV)
   0   2.0000     -20.480776      -557.3103
   1   2.0000     -20.409512      -555.3711
   2   2.0000     -20.341383      -553.5172
   3   2.0000     -20.314617      -552.7888
   4   2.0000     -20.308917      -552.6337
   5   2.0000     -20.301925      -552.4435
   6   2.0000     -15.576823      -423.8669
   7   2.0000     -15.544807      -422.9957
   8   2.0000     -15.526406      -422.4950
   9   2.0000     -11.352966      -308.9299
  10   2.0000     -11.214603      -305.1649
  11   2.0000     -11.192537      -304.5644
  12   2.0000     -11.188008      -304.4412
  13   2.0000     -11.185933      -304.3847
  14   2.0000     -11.171474      -303.9913
  15   2.0000     -11.169487      -303.9372
  16   2.0000     -11.155549      -303.5579
  17   2.0000     -11.130322      -302.8715
  18   2.0000     -11.129003      -302.8356
  19   2.0000     -11.109777      -302.3124
  20   2.0000     -11.103161      -302.1324
  21   2.0000     -11.087898      -301.7170
  22   2.0000     -11.065689      -301.1127
  23   2.0000      -1.317429       -35.8491
  24   2.0000      -1.277749       -34.7693
  25   2.0000      -1.232461       -33.5370
  26   2.0000      -1.201777       -32.7020
  27   2.0000      -1.197815       -32.5942
  28   2.0000      -1.178058       -32.0566
  29   2.0000      -1.165988       -31.7281
  30   2.0000      -1.101492       -29.9731
  31   2.0000      -1.086804       -29.5734
  32   2.0000      -1.023189       -27.8424
  33   2.0000      -1.021767       -27.8037
  34   2.0000      -0.910006       -24.7625
  35   2.0000      -0.903598       -24.5882
  36   2.0000      -0.895832       -24.3768
  37   2.0000      -0.852341       -23.1934
  38   2.0000      -0.818584       -22.2748
  39   2.0000      -0.782172       -21.2840
  40   2.0000      -0.745895       -20.2968
  41   2.0000      -0.745755       -20.2930
  42   2.0000      -0.711721       -19.3669
  43   2.0000      -0.709537       -19.3075
  44   2.0000      -0.682901       -18.5827
  45   2.0000      -0.650426       -17.6990
  46   2.0000      -0.631774       -17.1914
  47   2.0000      -0.615094       -16.7376
  48   2.0000      -0.605777       -16.4840
  49   2.0000      -0.604922       -16.4608
  50   2.0000      -0.592036       -16.1101
  51   2.0000      -0.573888       -15.6163
  52   2.0000      -0.570851       -15.5337
  53   2.0000      -0.544735       -14.8230
  54   2.0000      -0.537291       -14.6204
  55   2.0000      -0.531870       -14.4729
  56   2.0000      -0.511550       -13.9200
  57   2.0000      -0.500565       -13.6211
  58   2.0000      -0.485251       -13.2043
  59   2.0000      -0.484251       -13.1772
  60   2.0000      -0.474975       -12.9247
  61   2.0000      -0.474514       -12.9122
  62   2.0000      -0.467269       -12.7150
  63   2.0000      -0.462189       -12.5768
  64   2.0000      -0.458423       -12.4743
  65   2.0000      -0.435702       -11.8561
  66   2.0000      -0.434892       -11.8340
  67   2.0000      -0.424901       -11.5621
  68   2.0000      -0.422388       -11.4937
  69   2.0000      -0.412978       -11.2377
  70   2.0000      -0.409516       -11.1435
  71   2.0000      -0.406640       -11.0652
  72   2.0000      -0.392161       -10.6712
  73   2.0000      -0.378252       -10.2928
  74   2.0000      -0.366536        -9.9740
  75   2.0000      -0.350234        -9.5303
  76   2.0000      -0.349471        -9.5096
  77   2.0000      -0.337470        -9.1830
  78   2.0000      -0.293206        -7.9785
  79   2.0000      -0.262285        -7.1371
  80   2.0000      -0.239216        -6.5094
  81   2.0000      -0.236979        -6.4485
  82   2.0000      -0.234658        -6.3854
  83   2.0000      -0.226797        -6.1715
  84   2.0000      -0.210227        -5.7206
  85   2.0000      -0.192888        -5.2488
  86   2.0000      -0.172293        -4.6883
  87   0.0000       0.120860         3.2888
  88   0.0000       0.148044         4.0285
  89   0.0000       0.159670         4.3448
  90   0.0000       0.171978         4.6798
  91   0.0000       0.181500         4.9389

MULLIKEN ATOMIC CHARGES
-----------------------
   0 H :    0.073101
   1 C :   -0.212109
   2 H :    0.092356
   3 H :    0.068351
   4 C :   -0.143541
   5 H :    0.090770
   6 H :    0.028915
   7 C :   -0.014721
   8 H :    0.068223
   9 H :    0.154206
  10 N :   -0.361055
  11 H :    0.301345
  12 C :    0.598743
  13 N :   -0.427507
  14 H :    0.215182
  15 H :    0.182496
  16 N :   -0.422608
  17 H :    0.172262
  18 H :    0.317557
  19 C :   -0.314859
  20 H :    0.138663
  21 H :    0.159419
  22 C :    0.121937
  23 C :    0.623339
  24 O :   -0.659082
  25 O :   -0.702849
  26 O :   -0.657712
  27 C :    0.138902
  28 H :    0.120543
  29 C :   -0.152150
  30 H :    0.148730
  31 C :   -0.123486
  32 C :   -0.122451
  33 H :    0.196909
  34 C :   -0.159250
  35 H :    0.147685
  36 C :    0.193940
  37 H :    0.060076
  38 O :   -0.492699
  39 H :    0.236002
  40 C :    0.662879
  41 O :   -0.689894
  42 O :   -0.656557
Sum of atomic charges:   -1.0000000

LOEWDIN ATOMIC CHARGES
----------------------
   0 H :   -0.102428
   1 C :    0.314022
   2 H :   -0.073584
   3 H :   -0.089663
   4 C :    0.127936
   5 H :   -0.074521
   6 H :   -0.099710
   7 C :    0.080475
   8 H :   -0.088018
   9 H :   -0.060097
  10 N :    0.694866
  11 H :   -0.325225
  12 C :   -0.521753
  13 N :    0.801119
  14 H :   -0.211831
  15 H :   -0.202329
  16 N :    0.837625
  17 H :   -0.196644
  18 H :   -0.281911
  19 C :    0.260548
  20 H :   -0.120103
  21 H :   -0.113113
  22 C :   -0.567637
  23 C :   -1.096221
  24 O :    0.166374
  25 O :    0.262444
  26 O :    0.398608
  27 C :    0.134580
  28 H :   -0.093584
  29 C :    0.078845
  30 H :   -0.095759
  31 C :   -0.041940
  32 C :    0.131692
  33 H :   -0.081621
  34 C :    0.124587
  35 H :   -0.100337
  36 C :   -0.268150
  37 H :   -0.078306
  38 O :    0.661486
  39 H :   -0.339646
  40 C :   -1.104698
  41 O :    0.150894
  42 O :    0.202726

  Mayer bond orders larger than 0.100000
B(  0-H ,  1-C ) :   0.9911 B(  1-C ,  2-H ) :   0.9889 B(  1-C ,  3-H ) :   0.9931
B(  1-C ,  4-C ) :   0.9673 B(  4-C ,  5-H ) :   0.9747 B(  4-C ,  6-H ) :   0.9896
B(  4-C ,  7-C ) :   0.9543 B(  7-C ,  8-H ) :   0.9877 B(  7-C ,  9-H ) :   0.9654
B(  7-C , 10-N ) :   0.9218 B( 10-N , 11-H ) :   0.7696 B( 10-N , 12-C ) :   1.4670
B( 11-H , 25-O ) :   0.2168 B( 12-C , 13-N ) :   1.1967 B( 12-C , 16-N ) :   1.4041
B( 13-N , 14-H ) :   0.9608 B( 13-N , 15-H ) :   0.9867 B( 16-N , 17-H ) :   0.9873
B( 16-N , 18-H ) :   0.8031 B( 18-H , 26-O ) :   0.1379 B( 19-C , 20-H ) :   0.9971
B( 19-C , 21-H ) :   0.9514 B( 19-C , 22-C ) :   1.6949 B( 19-C , 31-C ) :   0.1215
B( 22-C , 23-C ) :   0.8762 B( 22-C , 26-O ) :   1.1170 B( 23-C , 24-O ) :   1.8736
B( 23-C , 25-O ) :   1.5253 B( 26-O , 27-C ) :   0.3690 B( 27-C , 28-H ) :   0.9867
B( 27-C , 29-C ) :   1.2177 B( 27-C , 36-C ) :   0.9231 B( 29-C , 30-H ) :   0.9497
B( 29-C , 31-C ) :   1.5500 B( 31-C , 32-C ) :   1.0480 B( 31-C , 40-C ) :   0.7854
B( 31-C , 41-O ) :  -0.1585 B( 31-C , 42-O ) :  -0.1394 B( 32-C , 33-H ) :   0.9349
B( 32-C , 34-C ) :   1.7910 B( 34-C , 35-H ) :   0.9672 B( 34-C , 36-C ) :   0.9955
B( 36-C , 37-H ) :   1.0055 B( 36-C , 38-O ) :   0.9760 B( 38-O , 39-H ) :   0.9857
B( 40-C , 41-O ) :   1.8092 B( 40-C , 42-O ) :   1.8205

E(0)                                       ...  -1154.716212187
E(0)                                       ...  -1154.716212187
E(CORR)(strong-pairs)                      ...     -4.648915273
E(CORR)(weak-pairs)                        ...     -0.012651344
E(CORR)(corrected)                         ...     -4.661566617
E(TOT)                                     ...  -1159.377778803
E(CCSD(T))                                 ...  -1159.597020736
FINAL SINGLE POINT ENERGY     -1159.597020736181

DIPOLE MOMENT
-------------
                                X             Y             Z
Electronic contribution:     24.68562      -9.50669      -0.40807
Nuclear contribution   :    -35.04708      12.19760       5.97409
                        -----------------------------------------
Total Dipole Moment    :    -10.36146       2.69091       5.56602
                        -----------------------------------------
Magnitude (a.u.)       :     12.06572
Magnitude (Debye)      :     30.66862

Rotational constants in cm-1:     0.015051     0.004185     0.004101
Rotational constants in MHz :   451.222300   125.463480   122.956163

                             ****ORCA TERMINATED NORMALLY****
TOTAL RUN TIME: 0 days 16 hours 12 minutes 11 seconds 879 msec
