                         Program Version 5.0.3 -  RELEASE  -
|  1> ! DLPNO-CCSD(T) cc-pVTZ cc-pVTZ/C TIGHTPNO TIGHTSCF
|  2> %maxcore 10000
|  3> %pal
|  4> nprocs 16
|  5> end
|  6> *xyz -1 1
|  7> H 4.850781301215 12.934605292460 7.688224759549
|  8> C 5.350900000000 11.995300000000 7.872580000000
|  9> H 5.814320000000 11.687100000000 6.929940000000
| 10> H 4.616390000000 11.222300000000 8.114120000000
| 11> C 6.405250000000 11.957400000000 8.956310000000
| 12> H 5.933650000000 12.038600000000 9.938440000000
| 13> H 7.078470000000 12.808000000000 8.849450000000
| 14> C 7.178230000000 10.642400000000 8.877650000000
| 15> H 7.954460000000 10.700600000000 8.118730000000
| 16> H 6.505990000000 9.841780000000 8.576030000000
| 17> N 7.760130000000 10.197100000000 10.133200000000
| 18> H 7.540780000000 9.261380000000 10.474700000000
| 19> C 8.667680000000 10.843800000000 10.844500000000
| 20> N 9.155230000000 12.024000000000 10.424400000000
| 21> H 9.391740000000 12.000400000000 9.432430000000
| 22> H 9.968990000000 12.312300000000 10.944000000000
| 23> N 9.058580000000 10.320400000000 11.995300000000
| 24> H 9.699290000000 10.816500000000 12.602800000000
| 25> H 8.725680000000 9.394070000000 12.232700000000
| 26> C 13.434400000000 9.659130000000 8.968930000000
| 27> H 13.973900000000 9.823810000000 9.899320000000
| 28> H 14.080300000000 9.966040000000 8.158320000000
| 29> C 12.213200000000 10.517300000000 9.011080000000
| 30> C 11.477100000000 10.841200000000 7.684990000000
| 31> O 12.123900000000 10.746800000000 6.637850000000
| 32> O 10.267600000000 11.169400000000 7.812850000000
| 33> O 11.790500000000 10.937100000000 10.060200000000
| 34> C 11.115600000000 7.770220000000 10.397300000000
| 35> H 10.685400000000 7.687770000000 11.383200000000
| 36> C 12.419300000000 7.883220000000 10.233700000000
| 37> H 13.097400000000 7.939930000000 11.064300000000
| 38> C 13.071100000000 8.141650000000 8.920430000000
| 39> C 12.145900000000 7.755770000000 7.797810000000
| 40> H 12.590200000000 7.619840000000 6.822340000000
| 41> C 10.845100000000 7.556230000000 7.967210000000
| 42> H 10.225700000000 7.269060000000 7.124890000000
| 43> C 10.147900000000 7.808810000000 9.263810000000
| 44> H 9.727150000000 8.819730000000 9.203970000000
| 45> O 9.076930000000 6.898890000000 9.460740000000
| 46> H 8.594260000000 7.163270000000 10.286900000000
| 47> C 14.459700000000 7.449390000000 8.788380000000
| 48> O 15.081500000000 7.187770000000 9.836640000000
| 49> O 14.892700000000 7.304190000000 7.620260000000
| 50> *
| 51>
| 52>                          ****END OF INPUT****

CARTESIAN COORDINATES (ANGSTROEM)
---------------------------------
  H      4.850781   12.934605    7.688225
  C      5.350900   11.995300    7.872580
  H      5.814320   11.687100    6.929940
  H      4.616390   11.222300    8.114120
  C      6.405250   11.957400    8.956310
  H      5.933650   12.038600    9.938440
  H      7.078470   12.808000    8.849450
  C      7.178230   10.642400    8.877650
  H      7.954460   10.700600    8.118730
  H      6.505990    9.841780    8.576030
  N      7.760130   10.197100   10.133200
  H      7.540780    9.261380   10.474700
  C      8.667680   10.843800   10.844500
  N      9.155230   12.024000   10.424400
  H      9.391740   12.000400    9.432430
  H      9.968990   12.312300   10.944000
  N      9.058580   10.320400   11.995300
  H      9.699290   10.816500   12.602800
  H      8.725680    9.394070   12.232700
  C     13.434400    9.659130    8.968930
  H     13.973900    9.823810    9.899320
  H     14.080300    9.966040    8.158320
  C     12.213200   10.517300    9.011080
  C     11.477100   10.841200    7.684990
  O     12.123900   10.746800    6.637850
  O     10.267600   11.169400    7.812850
  O     11.790500   10.937100   10.060200
  C     11.115600    7.770220   10.397300
  H     10.685400    7.687770   11.383200
  C     12.419300    7.883220   10.233700
  H     13.097400    7.939930   11.064300
  C     13.071100    8.141650    8.920430
  C     12.145900    7.755770    7.797810
  H     12.590200    7.619840    6.822340
  C     10.845100    7.556230    7.967210
  H     10.225700    7.269060    7.124890
  C     10.147900    7.808810    9.263810
  H      9.727150    8.819730    9.203970
  O      9.076930    6.898890    9.460740
  H      8.594260    7.163270   10.286900
  C     14.459700    7.449390    8.788380
  O     15.081500    7.187770    9.836640
  O     14.892700    7.304190    7.620260

 Total Charge           Charge          ....   -1
 Multiplicity           Mult            ....    1
 Number of Electrons    NEL             ....  174
 Basis Dimension        Dim             ....  970

ORBITAL ENERGIES
----------------

  NO   OCC          E(Eh)            E(eV)
   0   2.0000     -20.469436      -557.0017
   1   2.0000     -20.424626      -555.7823
   2   2.0000     -20.352375      -553.8163
   3   2.0000     -20.345404      -553.6266
   4   2.0000     -20.294332      -552.2368
   5   2.0000     -20.288228      -552.0707
   6   2.0000     -15.580823      -423.9757
   7   2.0000     -15.573647      -423.7805
   8   2.0000     -15.533462      -422.6870
   9   2.0000     -11.365402      -309.2683
  10   2.0000     -11.218998      -305.2845
  11   2.0000     -11.191682      -304.5411
  12   2.0000     -11.188196      -304.4463
  13   2.0000     -11.178394      -304.1796
  14   2.0000     -11.169792      -303.9455
  15   2.0000     -11.168938      -303.9223
  16   2.0000     -11.141135      -303.1657
  17   2.0000     -11.098116      -301.9951
  18   2.0000     -11.096741      -301.9577
  19   2.0000     -11.094478      -301.8961
  20   2.0000     -11.087757      -301.7132
  21   2.0000     -11.087658      -301.7105
  22   2.0000     -11.084625      -301.6280
  23   2.0000      -1.327002       -36.1096
  24   2.0000      -1.277769       -34.7699
  25   2.0000      -1.266898       -34.4741
  26   2.0000      -1.227367       -33.3984
  27   2.0000      -1.194135       -32.4941
  28   2.0000      -1.180107       -32.1123
  29   2.0000      -1.163879       -31.6708
  30   2.0000      -1.129925       -30.7468
  31   2.0000      -1.071747       -29.1637
  32   2.0000      -1.021408       -27.7939
  33   2.0000      -1.010364       -27.4934
  34   2.0000      -0.915948       -24.9242
  35   2.0000      -0.908641       -24.7254
  36   2.0000      -0.889212       -24.1967
  37   2.0000      -0.825806       -22.4713
  38   2.0000      -0.821837       -22.3633
  39   2.0000      -0.775691       -21.1076
  40   2.0000      -0.749538       -20.3960
  41   2.0000      -0.741286       -20.1714
  42   2.0000      -0.723495       -19.6873
  43   2.0000      -0.694836       -18.9075
  44   2.0000      -0.678979       -18.4759
  45   2.0000      -0.640819       -17.4376
  46   2.0000      -0.623991       -16.9797
  47   2.0000      -0.605113       -16.4660
  48   2.0000      -0.597999       -16.2724
  49   2.0000      -0.593659       -16.1543
  50   2.0000      -0.587429       -15.9848
  51   2.0000      -0.576301       -15.6820
  52   2.0000      -0.563409       -15.3311
  53   2.0000      -0.556121       -15.1328
  54   2.0000      -0.528610       -14.3842
  55   2.0000      -0.524342       -14.2681
  56   2.0000      -0.512344       -13.9416
  57   2.0000      -0.501112       -13.6360
  58   2.0000      -0.500231       -13.6120
  59   2.0000      -0.495034       -13.4706
  60   2.0000      -0.479967       -13.0606
  61   2.0000      -0.465786       -12.6747
  62   2.0000      -0.457027       -12.4363
  63   2.0000      -0.452401       -12.3105
  64   2.0000      -0.448176       -12.1955
  65   2.0000      -0.446720       -12.1559
  66   2.0000      -0.436108       -11.8671
  67   2.0000      -0.431986       -11.7549
  68   2.0000      -0.415467       -11.3054
  69   2.0000      -0.405958       -11.0467
  70   2.0000      -0.401498       -10.9253
  71   2.0000      -0.396043       -10.7769
  72   2.0000      -0.390668       -10.6306
  73   2.0000      -0.378189       -10.2910
  74   2.0000      -0.371858       -10.1188
  75   2.0000      -0.355650        -9.6777
  76   2.0000      -0.349880        -9.5207
  77   2.0000      -0.328566        -8.9407
  78   2.0000      -0.309774        -8.4294
  79   2.0000      -0.273226        -7.4349
  80   2.0000      -0.255207        -6.9445
  81   2.0000      -0.244305        -6.6479
  82   2.0000      -0.241942        -6.5836
  83   2.0000      -0.229996        -6.2585
  84   2.0000      -0.209189        -5.6923
  85   2.0000      -0.196096        -5.3361
  86   2.0000      -0.189079        -5.1451
  87   0.0000       0.141134         3.8405
  88   0.0000       0.183449         4.9919
  89   0.0000       0.190124         5.1735
  90   0.0000       0.212338         5.7780
  91   0.0000       0.213587         5.8120

MULLIKEN ATOMIC CHARGES
-----------------------
   0 H :    0.110342
   1 C :   -0.305979
   2 H :    0.105910
   3 H :    0.075361
   4 C :   -0.143390
   5 H :    0.081239
   6 H :    0.117890
   7 C :   -0.112426
   8 H :    0.178355
   9 H :    0.109806
  10 N :   -0.152661
  11 H :    0.164528
  12 C :    0.344683
  13 N :   -0.257122
  14 H :    0.249598
  15 H :    0.169551
  16 N :   -0.225239
  17 H :    0.204743
  18 H :    0.174542
  19 C :   -0.151691
  20 H :    0.100662
  21 H :    0.141232
  22 C :    0.237898
  23 C :    0.385454
  24 O :   -0.509170
  25 O :   -0.624283
  26 O :   -0.469836
  27 C :   -0.247758
  28 H :    0.066436
  29 C :   -0.140641
  30 H :    0.149466
  31 C :    0.060560
  32 C :   -0.172710
  33 H :    0.175680
  34 C :   -0.226719
  35 H :    0.119968
  36 C :    0.234113
  37 H :    0.042549
  38 O :   -0.431009
  39 H :    0.180253
  40 C :    0.376492
  41 O :   -0.593398
  42 O :   -0.593278
Sum of atomic charges:   -1.0000000

LOEWDIN ATOMIC CHARGES
----------------------
   0 H :   -0.035333
   1 C :    0.110440
   2 H :   -0.017669
   3 H :   -0.031272
   4 C :    0.045659
   5 H :   -0.033583
   6 H :   -0.023786
   7 C :    0.037802
   8 H :   -0.015423
   9 H :   -0.018277
  10 N :    0.431109
  11 H :   -0.059028
  12 C :   -0.253448
  13 N :    0.454798
  14 H :   -0.074102
  15 H :   -0.067867
  16 N :    0.487388
  17 H :   -0.045620
  18 H :   -0.059924
  19 C :    0.073486
  20 H :   -0.015996
  21 H :   -0.011790
  22 C :   -0.249979
  23 C :   -0.663681
  24 O :    0.002268
  25 O :   -0.079926
  26 O :    0.108285
  27 C :   -0.014703
  28 H :   -0.068649
  29 C :    0.077916
  30 H :   -0.026455
  31 C :   -0.103278
  32 C :    0.089384
  33 H :   -0.018701
  34 C :    0.014838
  35 H :   -0.041548
  36 C :   -0.172026
  37 H :   -0.048705
  38 O :    0.297408
  39 H :   -0.188371
  40 C :   -0.636361
  41 O :   -0.076025
  42 O :   -0.079254

  Mayer bond orders larger than 0.100000
B(  0-H ,  1-C ) :   0.9848 B(  1-C ,  2-H ) :   0.9796 B(  1-C ,  3-H ) :   0.9860
B(  1-C ,  4-C ) :   0.9499 B(  4-C ,  5-H ) :   0.9860 B(  4-C ,  6-H ) :   0.9744
B(  4-C ,  7-C ) :   0.9510 B(  7-C ,  8-H ) :   0.9430 B(  7-C ,  9-H ) :   0.9858
B(  7-C , 10-N ) :   0.9062 B( 10-N , 11-H ) :   0.9716 B( 10-N , 12-C ) :   1.3797
B( 12-C , 13-N ) :   1.3427 B( 12-C , 16-N ) :   1.3559 B( 13-N , 14-H ) :   0.8779
B( 13-N , 15-H ) :   0.9672 B( 14-H , 25-O ) :   0.1016 B( 16-N , 17-H ) :   0.9534
B( 16-N , 18-H ) :   0.9591 B( 19-C , 20-H ) :   0.9772 B( 19-C , 21-H ) :   0.9538
B( 19-C , 22-C ) :   0.9014 B( 19-C , 31-C ) :   0.9253 B( 22-C , 23-C ) :   0.8761
B( 22-C , 26-O ) :   1.9426 B( 23-C , 24-O ) :   1.9201 B( 23-C , 25-O ) :   1.6182
B( 27-C , 28-H ) :   0.9773 B( 27-C , 29-C ) :   1.8288 B( 27-C , 36-C ) :   0.9482
B( 29-C , 30-H ) :   0.9595 B( 29-C , 31-C ) :   0.9685 B( 31-C , 32-C ) :   0.9873
B( 31-C , 40-C ) :   0.8313 B( 31-C , 42-O ) :  -0.1056 B( 32-C , 33-H ) :   0.9454
B( 32-C , 34-C ) :   1.8038 B( 34-C , 35-H ) :   0.9824 B( 34-C , 36-C ) :   0.9779
B( 36-C , 37-H ) :   0.9718 B( 36-C , 38-O ) :   0.9262 B( 38-O , 39-H ) :   1.0153
B( 40-C , 41-O ) :   1.8540 B( 40-C , 42-O ) :   1.8590

E(0)                                       ...  -1154.708910268
E(0)                                       ...  -1154.708910268
E(CORR)(strong-pairs)                      ...     -4.384784534
E(CORR)(weak-pairs)                        ...     -0.008388050
E(CORR)(corrected)                         ...     -4.393172584
E(TOT)                                     ...  -1159.102082851
E(CCSD(T))                                 ...  -1159.294560788
FINAL SINGLE POINT ENERGY     -1159.294560787579

DIPOLE MOMENT
-------------
                                X             Y             Z
Electronic contribution:     22.51110      -7.15478      -0.10479
Nuclear contribution   :    -31.67995      10.71941       5.06507
                        -----------------------------------------
Total Dipole Moment    :     -9.16885       3.56463       4.96028
                        -----------------------------------------
Magnitude (a.u.)       :     11.01720
Magnitude (Debye)      :     28.00350

Rotational constants in cm-1:     0.015407     0.005218     0.004956
Rotational constants in MHz :   461.876169   156.420661   148.589882

                             ****ORCA TERMINATED NORMALLY****
TOTAL RUN TIME: 0 days 19 hours 19 minutes 46 seconds 961 msec
