                         Program Version 5.0.3 -  RELEASE  -
|  1> ! DLPNO-CCSD(T) cc-pVTZ cc-pVTZ/C TIGHTPNO TIGHTSCF
|  2> %maxcore 10000
|  3> %pal
|  4> nprocs 16
|  5> end
|  6> *xyz -1 1
|  7> H 4.319730507516 12.905778635742 8.257654231871
|  8> C 4.602216000000 11.906393000000 8.554016000000
|  9> H 5.202880000000 11.484091000000 7.739706000000
| 10> H 3.716107000000 11.272812000000 8.632558000000
| 11> C 5.374535000000 11.713732000000 9.838472000000
| 12> H 5.615493000000 10.650762000000 9.919743000000
| 13> H 4.735518000000 11.963729000000 10.689975000000
| 14> C 6.662520000000 12.513456000000 9.859035000000
| 15> H 6.508118000000 13.501719000000 10.295197000000
| 16> H 6.978814000000 12.677005000000 8.832674000000
| 17> N 7.789977000000 11.866852000000 10.492303000000
| 18> H 8.587029000000 11.666920000000 9.886104000000
| 19> C 8.027069000000 11.829394000000 11.789235000000
| 20> N 7.043658000000 12.078071000000 12.675072000000
| 21> H 6.104205000000 11.836510000000 12.419336000000
| 22> H 7.300140000000 11.941330000000 13.643250000000
| 23> N 9.237913000000 11.580247000000 12.225607000000
| 24> H 9.410530000000 11.609444000000 13.226423000000
| 25> H 10.008986000000 11.469178000000 11.578427000000
| 26> C 13.103913000000 10.148615000000 9.309915000000
| 27> H 13.657765000000 10.597925000000 10.133105000000
| 28> H 13.617501000000 10.429931000000 8.398170000000
| 29> C 11.735925000000 10.760207000000 9.435358000000
| 30> C 10.782943000000 11.132518000000 8.253336000000
| 31> O 11.189137000000 11.036712000000 7.078030000000
| 32> O 9.658436000000 11.553099000000 8.561375000000
| 33> O 11.338516000000 11.023444000000 10.540512000000
| 34> C 11.114618000000 8.063680000000 10.882661000000
| 35> H 10.553289000000 8.067617000000 11.804856000000
| 36> C 12.392416000000 8.394543000000 10.859876000000
| 37> H 12.905050000000 8.693909000000 11.759850000000
| 38> C 13.137361000000 8.595852000000 9.580044000000
| 39> C 12.500912000000 7.775738000000 8.489914000000
| 40> H 13.145861000000 7.447765000000 7.682626000000
| 41> C 11.235494000000 7.389036000000 8.524577000000
| 42> H 10.819502000000 6.782044000000 7.729158000000
| 43> C 10.326948000000 7.721023000000 9.659093000000
| 44> H 9.720061000000 8.597514000000 9.385103000000
| 45> O 9.468181000000 6.631410000000 9.884944000000
| 46> H 8.765731000000 6.923220000000 10.552644000000
| 47> C 14.661174000000 8.269068000000 9.656310000000
| 48> O 15.190670000000 8.167421000000 10.790049000000
| 49> O 15.269476000000 8.197447000000 8.578085000000
| 50> *
| 51>
| 52>                          ****END OF INPUT****

CARTESIAN COORDINATES (ANGSTROEM)
---------------------------------
  H      4.319731   12.905779    8.257654
  C      4.602216   11.906393    8.554016
  H      5.202880   11.484091    7.739706
  H      3.716107   11.272812    8.632558
  C      5.374535   11.713732    9.838472
  H      5.615493   10.650762    9.919743
  H      4.735518   11.963729   10.689975
  C      6.662520   12.513456    9.859035
  H      6.508118   13.501719   10.295197
  H      6.978814   12.677005    8.832674
  N      7.789977   11.866852   10.492303
  H      8.587029   11.666920    9.886104
  C      8.027069   11.829394   11.789235
  N      7.043658   12.078071   12.675072
  H      6.104205   11.836510   12.419336
  H      7.300140   11.941330   13.643250
  N      9.237913   11.580247   12.225607
  H      9.410530   11.609444   13.226423
  H     10.008986   11.469178   11.578427
  C     13.103913   10.148615    9.309915
  H     13.657765   10.597925   10.133105
  H     13.617501   10.429931    8.398170
  C     11.735925   10.760207    9.435358
  C     10.782943   11.132518    8.253336
  O     11.189137   11.036712    7.078030
  O      9.658436   11.553099    8.561375
  O     11.338516   11.023444   10.540512
  C     11.114618    8.063680   10.882661
  H     10.553289    8.067617   11.804856
  C     12.392416    8.394543   10.859876
  H     12.905050    8.693909   11.759850
  C     13.137361    8.595852    9.580044
  C     12.500912    7.775738    8.489914
  H     13.145861    7.447765    7.682626
  C     11.235494    7.389036    8.524577
  H     10.819502    6.782044    7.729158
  C     10.326948    7.721023    9.659093
  H      9.720061    8.597514    9.385103
  O      9.468181    6.631410    9.884944
  H      8.765731    6.923220   10.552644
  C     14.661174    8.269068    9.656310
  O     15.190670    8.167421   10.790049
  O     15.269476    8.197447    8.578085

 Total Charge           Charge          ....   -1
 Multiplicity           Mult            ....    1
 Number of Electrons    NEL             ....  174
 Basis Dimension        Dim             ....  970

ORBITAL ENERGIES
----------------

  NO   OCC          E(Eh)            E(eV)
   0   2.0000     -20.450170      -556.4774
   1   2.0000     -20.437325      -556.1279
   2   2.0000     -20.361874      -554.0748
   3   2.0000     -20.346176      -553.6476
   4   2.0000     -20.290177      -552.1238
   5   2.0000     -20.288943      -552.0902
   6   2.0000     -15.582074      -424.0098
   7   2.0000     -15.550047      -423.1383
   8   2.0000     -15.534951      -422.7275
   9   2.0000     -11.359066      -309.0959
  10   2.0000     -11.222167      -305.3707
  11   2.0000     -11.207427      -304.9696
  12   2.0000     -11.196590      -304.6747
  13   2.0000     -11.191175      -304.5274
  14   2.0000     -11.176278      -304.1220
  15   2.0000     -11.157976      -303.6240
  16   2.0000     -11.138511      -303.0943
  17   2.0000     -11.099715      -302.0386
  18   2.0000     -11.096246      -301.9442
  19   2.0000     -11.088940      -301.7454
  20   2.0000     -11.084530      -301.6254
  21   2.0000     -11.083484      -301.5969
  22   2.0000     -11.079911      -301.4997
  23   2.0000      -1.323990       -36.0276
  24   2.0000      -1.297018       -35.2936
  25   2.0000      -1.248918       -33.9848
  26   2.0000      -1.240810       -33.7642
  27   2.0000      -1.185543       -32.2603
  28   2.0000      -1.180985       -32.1362
  29   2.0000      -1.172859       -31.9151
  30   2.0000      -1.132030       -30.8041
  31   2.0000      -1.070296       -29.1242
  32   2.0000      -1.028244       -27.9799
  33   2.0000      -1.002824       -27.2882
  34   2.0000      -0.909623       -24.7521
  35   2.0000      -0.907558       -24.6959
  36   2.0000      -0.883037       -24.0286
  37   2.0000      -0.828570       -22.5465
  38   2.0000      -0.820748       -22.3337
  39   2.0000      -0.788810       -21.4646
  40   2.0000      -0.751689       -20.4545
  41   2.0000      -0.737508       -20.0686
  42   2.0000      -0.715088       -19.4585
  43   2.0000      -0.700984       -19.0747
  44   2.0000      -0.671027       -18.2596
  45   2.0000      -0.658707       -17.9243
  46   2.0000      -0.642727       -17.4895
  47   2.0000      -0.613532       -16.6951
  48   2.0000      -0.600206       -16.3324
  49   2.0000      -0.590335       -16.0638
  50   2.0000      -0.579555       -15.7705
  51   2.0000      -0.570211       -15.5162
  52   2.0000      -0.560847       -15.2614
  53   2.0000      -0.551879       -15.0174
  54   2.0000      -0.542326       -14.7574
  55   2.0000      -0.530333       -14.4311
  56   2.0000      -0.505863       -13.7652
  57   2.0000      -0.505436       -13.7536
  58   2.0000      -0.497257       -13.5311
  59   2.0000      -0.493860       -13.4386
  60   2.0000      -0.471856       -12.8399
  61   2.0000      -0.465477       -12.6663
  62   2.0000      -0.464496       -12.6396
  63   2.0000      -0.451343       -12.2817
  64   2.0000      -0.449071       -12.2198
  65   2.0000      -0.447139       -12.1673
  66   2.0000      -0.440081       -11.9752
  67   2.0000      -0.434180       -11.8146
  68   2.0000      -0.417464       -11.3598
  69   2.0000      -0.416787       -11.3414
  70   2.0000      -0.405115       -11.0237
  71   2.0000      -0.400136       -10.8882
  72   2.0000      -0.383055       -10.4235
  73   2.0000      -0.380131       -10.3439
  74   2.0000      -0.357328        -9.7234
  75   2.0000      -0.354075        -9.6349
  76   2.0000      -0.343436        -9.3454
  77   2.0000      -0.332745        -9.0545
  78   2.0000      -0.303200        -8.2505
  79   2.0000      -0.280396        -7.6300
  80   2.0000      -0.256978        -6.9927
  81   2.0000      -0.252983        -6.8840
  82   2.0000      -0.239239        -6.5100
  83   2.0000      -0.221226        -6.0199
  84   2.0000      -0.207125        -5.6362
  85   2.0000      -0.194899        -5.3035
  86   2.0000      -0.190456        -5.1826
  87   0.0000       0.142714         3.8834
  88   0.0000       0.171037         4.6541
  89   0.0000       0.196406         5.3445
  90   0.0000       0.204729         5.5710
  91   0.0000       0.217431         5.9166

MULLIKEN ATOMIC CHARGES
-----------------------
   0 H :    0.100851
   1 C :   -0.305305
   2 H :    0.116284
   3 H :    0.090938
   4 C :   -0.176184
   5 H :    0.117693
   6 H :    0.061727
   7 C :   -0.092498
   8 H :    0.103227
   9 H :    0.145320
  10 N :   -0.201699
  11 H :    0.270856
  12 C :    0.316355
  13 N :   -0.292580
  14 H :    0.206100
  15 H :    0.174603
  16 N :   -0.271272
  17 H :    0.165258
  18 H :    0.289589
  19 C :   -0.136933
  20 H :    0.108892
  21 H :    0.139919
  22 C :    0.202825
  23 C :    0.366810
  24 O :   -0.518216
  25 O :   -0.582300
  26 O :   -0.426027
  27 C :   -0.228731
  28 H :    0.074403
  29 C :   -0.146332
  30 H :    0.143137
  31 C :    0.035922
  32 C :   -0.166821
  33 H :    0.173250
  34 C :   -0.220167
  35 H :    0.121471
  36 C :    0.233602
  37 H :    0.052264
  38 O :   -0.440009
  39 H :    0.206783
  40 C :    0.369403
  41 O :   -0.595558
  42 O :   -0.586846
Sum of atomic charges:   -1.0000000

LOEWDIN ATOMIC CHARGES
----------------------
   0 H :   -0.036448
   1 C :    0.113434
   2 H :   -0.013224
   3 H :   -0.026981
   4 C :    0.030905
   5 H :   -0.017404
   6 H :   -0.041747
   7 C :    0.022434
   8 H :   -0.030220
   9 H :   -0.001808
  10 N :    0.444269
  11 H :   -0.144982
  12 C :   -0.280002
  13 N :    0.445877
  14 H :   -0.072049
  15 H :   -0.065782
  16 N :    0.501259
  17 H :   -0.059364
  18 H :   -0.129741
  19 C :    0.080763
  20 H :   -0.011477
  21 H :   -0.013891
  22 C :   -0.223493
  23 C :   -0.664691
  24 O :   -0.026919
  25 O :    0.006396
  26 O :    0.194372
  27 C :   -0.004103
  28 H :   -0.062199
  29 C :    0.070500
  30 H :   -0.029061
  31 C :   -0.099786
  32 C :    0.071517
  33 H :   -0.022174
  34 C :    0.013630
  35 H :   -0.040681
  36 C :   -0.179698
  37 H :   -0.039902
  38 O :    0.284844
  39 H :   -0.142164
  40 C :   -0.646464
  41 O :   -0.094685
  42 O :   -0.059063

  Mayer bond orders larger than 0.100000
B(  0-H ,  1-C ) :   0.9796 B(  1-C ,  2-H ) :   0.9815 B(  1-C ,  3-H ) :   0.9866
B(  1-C ,  4-C ) :   0.9611 B(  4-C ,  5-H ) :   0.9740 B(  4-C ,  6-H ) :   0.9815
B(  4-C ,  7-C ) :   0.9298 B(  7-C ,  8-H ) :   0.9832 B(  7-C ,  9-H ) :   0.9757
B(  7-C , 10-N ) :   0.9347 B( 10-N , 11-H ) :   0.8212 B( 10-N , 12-C ) :   1.4542
B( 11-H , 25-O ) :   0.1722 B( 12-C , 13-N ) :   1.2232 B( 12-C , 16-N ) :   1.4341
B( 13-N , 14-H ) :   0.9541 B( 13-N , 15-H ) :   0.9720 B( 16-N , 17-H ) :   0.9731
B( 16-N , 18-H ) :   0.8361 B( 18-H , 26-O ) :   0.1072 B( 19-C , 20-H ) :   0.9693
B( 19-C , 21-H ) :   0.9610 B( 19-C , 22-C ) :   0.8819 B( 19-C , 31-C ) :   0.9333
B( 22-C , 23-C ) :   0.8786 B( 22-C , 26-O ) :   1.8713 B( 23-C , 24-O ) :   1.9498
B( 23-C , 25-O ) :   1.6063 B( 27-C , 28-H ) :   0.9864 B( 27-C , 29-C ) :   1.8016
B( 27-C , 36-C ) :   0.9527 B( 29-C , 30-H ) :   0.9639 B( 29-C , 31-C ) :   0.9667
B( 31-C , 32-C ) :   0.9757 B( 31-C , 40-C ) :   0.8374 B( 32-C , 33-H ) :   0.9453
B( 32-C , 34-C ) :   1.8295 B( 34-C , 35-H ) :   0.9780 B( 34-C , 36-C ) :   0.9688
B( 36-C , 37-H ) :   0.9852 B( 36-C , 38-O ) :   0.9716 B( 38-O , 39-H ) :   0.9954
B( 40-C , 41-O ) :   1.8609 B( 40-C , 42-O ) :   1.8436

E(0)                                       ...  -1154.717864163
E(0)                                       ...  -1154.717864163
E(CORR)(strong-pairs)                      ...     -4.380418209
E(CORR)(weak-pairs)                        ...     -0.007845785
E(CORR)(corrected)                         ...     -4.388263994
E(TOT)                                     ...  -1159.106128157
E(CCSD(T))                                 ...  -1159.297803564
FINAL SINGLE POINT ENERGY     -1159.297803564202

DIPOLE MOMENT
-------------
                                X             Y             Z
Electronic contribution:     24.76873      -6.34735      -0.80255
Nuclear contribution   :    -35.11365      10.52753       5.76399
                        -----------------------------------------
Total Dipole Moment    :    -10.34492       4.18017       4.96144
                        -----------------------------------------
Magnitude (a.u.)       :     12.21094
Magnitude (Debye)      :     31.03774

Rotational constants in cm-1:     0.014629     0.004232     0.004186
Rotational constants in MHz :   438.554641   126.878795   125.480004

                             ****ORCA TERMINATED NORMALLY****
TOTAL RUN TIME: 0 days 4 hours 25 minutes 54 seconds 515 msec
