                         Program Version 5.0.3 -  RELEASE  -
|  1> ! DLPNO-CCSD(T) cc-pVTZ cc-pVTZ/C TIGHTPNO TIGHTSCF
|  2> %maxcore 10000
|  3> %pal
|  4> nprocs 16
|  5> end
|  6> *xyz -1 1
|  7> H 4.850745564798 12.929940336313 7.689246415411
|  8> C 5.346434000000 11.988230000000 7.873297000000
|  9> H 5.818987000000 11.687284000000 6.932920000000
| 10> H 4.604976000000 11.216834000000 8.099032000000
| 11> C 6.387642000000 11.928107000000 8.969981000000
| 12> H 5.903695000000 12.002622000000 9.947053000000
| 13> H 7.075533000000 12.768799000000 8.881997000000
| 14> C 7.142859000000 10.602862000000 8.882098000000
| 15> H 7.892840000000 10.645354000000 8.096775000000
| 16> H 6.447574000000 9.809648000000 8.614018000000
| 17> N 7.761285000000 10.161433000000 10.123054000000
| 18> H 7.530236000000 9.239443000000 10.491146000000
| 19> C 8.667853000000 10.823099000000 10.823916000000
| 20> N 9.190296000000 11.966110000000 10.352291000000
| 21> H 9.473883000000 11.853423000000 9.370681000000
| 22> H 9.973979000000 12.285689000000 10.898721000000
| 23> N 9.004674000000 10.352349000000 12.014841000000
| 24> H 9.687684000000 10.828461000000 12.590096000000
| 25> H 8.667297000000 9.433544000000 12.270560000000
| 26> C 13.497471000000 10.124834000000 8.990388000000
| 27> H 14.002736000000 9.965480000000 9.929403000000
| 28> H 14.103335000000 10.391811000000 8.142497000000
| 29> C 12.146236000000 10.352758000000 8.999894000000
| 30> C 11.431561000000 10.727023000000 7.693401000000
| 31> O 12.053873000000 10.681623000000 6.625762000000
| 32> O 10.210801000000 11.057931000000 7.817585000000
| 33> O 11.439724000000 10.141477000000 10.040080000000
| 34> C 11.183713000000 8.059896000000 10.332128000000
| 35> H 10.776000000000 8.181377000000 11.324220000000
| 36> C 12.515008000000 7.773270000000 10.179404000000
| 37> H 13.205526000000 7.874471000000 10.994819000000
| 38> C 13.051445000000 7.668223000000 8.919703000000
| 39> C 12.151584000000 7.437936000000 7.795097000000
| 40> H 12.603638000000 7.236237000000 6.835244000000
| 41> C 10.833019000000 7.408642000000 7.963959000000
| 42> H 10.181591000000 7.156225000000 7.136612000000
| 43> C 10.178662000000 7.786800000000 9.248950000000
| 44> H 9.653735000000 8.726833000000 9.065413000000
| 45> O 9.248094000000 6.790583000000 9.640450000000
| 46> H 8.710204000000 7.122535000000 10.409350000000
| 47> C 14.528537000000 7.337625000000 8.746468000000
| 48> O 15.201730000000 7.159739000000 9.781723000000
| 49> O 14.944198000000 7.268365000000 7.567336000000
| 50> *
| 51>
| 52>                          ****END OF INPUT****

CARTESIAN COORDINATES (ANGSTROEM)
---------------------------------
  H      4.850746   12.929940    7.689246
  C      5.346434   11.988230    7.873297
  H      5.818987   11.687284    6.932920
  H      4.604976   11.216834    8.099032
  C      6.387642   11.928107    8.969981
  H      5.903695   12.002622    9.947053
  H      7.075533   12.768799    8.881997
  C      7.142859   10.602862    8.882098
  H      7.892840   10.645354    8.096775
  H      6.447574    9.809648    8.614018
  N      7.761285   10.161433   10.123054
  H      7.530236    9.239443   10.491146
  C      8.667853   10.823099   10.823916
  N      9.190296   11.966110   10.352291
  H      9.473883   11.853423    9.370681
  H      9.973979   12.285689   10.898721
  N      9.004674   10.352349   12.014841
  H      9.687684   10.828461   12.590096
  H      8.667297    9.433544   12.270560
  C     13.497471   10.124834    8.990388
  H     14.002736    9.965480    9.929403
  H     14.103335   10.391811    8.142497
  C     12.146236   10.352758    8.999894
  C     11.431561   10.727023    7.693401
  O     12.053873   10.681623    6.625762
  O     10.210801   11.057931    7.817585
  O     11.439724   10.141477   10.040080
  C     11.183713    8.059896   10.332128
  H     10.776000    8.181377   11.324220
  C     12.515008    7.773270   10.179404
  H     13.205526    7.874471   10.994819
  C     13.051445    7.668223    8.919703
  C     12.151584    7.437936    7.795097
  H     12.603638    7.236237    6.835244
  C     10.833019    7.408642    7.963959
  H     10.181591    7.156225    7.136612
  C     10.178662    7.786800    9.248950
  H      9.653735    8.726833    9.065413
  O      9.248094    6.790583    9.640450
  H      8.710204    7.122535   10.409350
  C     14.528537    7.337625    8.746468
  O     15.201730    7.159739    9.781723
  O     14.944198    7.268365    7.567336

 Total Charge           Charge          ....   -1
 Multiplicity           Mult            ....    1
 Number of Electrons    NEL             ....  174
 Basis Dimension        Dim             ....  970

ORBITAL ENERGIES
----------------

  NO   OCC          E(Eh)            E(eV)
   0   2.0000     -20.484014      -557.3984
   1   2.0000     -20.387393      -554.7692
   2   2.0000     -20.333801      -553.3109
   3   2.0000     -20.320019      -552.9358
   4   2.0000     -20.300677      -552.4095
   5   2.0000     -20.298503      -552.3503
   6   2.0000     -15.577434      -423.8835
   7   2.0000     -15.570357      -423.6909
   8   2.0000     -15.524430      -422.4412
   9   2.0000     -11.360752      -309.1418
  10   2.0000     -11.216643      -305.2204
  11   2.0000     -11.184412      -304.3433
  12   2.0000     -11.175634      -304.1045
  13   2.0000     -11.167690      -303.8883
  14   2.0000     -11.165155      -303.8193
  15   2.0000     -11.159246      -303.6585
  16   2.0000     -11.152051      -303.4627
  17   2.0000     -11.136801      -303.0478
  18   2.0000     -11.130585      -302.8786
  19   2.0000     -11.110470      -302.3313
  20   2.0000     -11.101796      -302.0952
  21   2.0000     -11.081432      -301.5411
  22   2.0000     -11.067752      -301.1688
  23   2.0000      -1.322221       -35.9795
  24   2.0000      -1.280166       -34.8351
  25   2.0000      -1.223126       -33.2830
  26   2.0000      -1.192307       -32.4443
  27   2.0000      -1.189648       -32.3720
  28   2.0000      -1.187903       -32.3245
  29   2.0000      -1.157190       -31.4887
  30   2.0000      -1.103842       -30.0371
  31   2.0000      -1.080663       -29.4063
  32   2.0000      -1.021574       -27.7984
  33   2.0000      -1.018467       -27.7139
  34   2.0000      -0.905979       -24.6530
  35   2.0000      -0.905393       -24.6370
  36   2.0000      -0.892833       -24.2952
  37   2.0000      -0.842877       -22.9358
  38   2.0000      -0.818179       -22.2638
  39   2.0000      -0.771252       -20.9868
  40   2.0000      -0.746034       -20.3006
  41   2.0000      -0.743156       -20.2223
  42   2.0000      -0.719412       -19.5762
  43   2.0000      -0.704610       -19.1734
  44   2.0000      -0.673113       -18.3163
  45   2.0000      -0.634487       -17.2653
  46   2.0000      -0.622587       -16.9414
  47   2.0000      -0.609757       -16.5923
  48   2.0000      -0.604700       -16.4547
  49   2.0000      -0.600638       -16.3442
  50   2.0000      -0.591440       -16.0939
  51   2.0000      -0.574217       -15.6252
  52   2.0000      -0.566338       -15.4108
  53   2.0000      -0.538735       -14.6597
  54   2.0000      -0.529380       -14.4052
  55   2.0000      -0.520445       -14.1620
  56   2.0000      -0.501148       -13.6369
  57   2.0000      -0.495642       -13.4871
  58   2.0000      -0.492530       -13.4024
  59   2.0000      -0.479201       -13.0397
  60   2.0000      -0.476520       -12.9668
  61   2.0000      -0.472274       -12.8512
  62   2.0000      -0.469030       -12.7630
  63   2.0000      -0.459615       -12.5068
  64   2.0000      -0.445257       -12.1160
  65   2.0000      -0.433053       -11.7840
  66   2.0000      -0.429210       -11.6794
  67   2.0000      -0.421067       -11.4578
  68   2.0000      -0.420233       -11.4351
  69   2.0000      -0.405039       -11.0217
  70   2.0000      -0.402404       -10.9500
  71   2.0000      -0.395452       -10.7608
  72   2.0000      -0.384866       -10.4727
  73   2.0000      -0.373468       -10.1626
  74   2.0000      -0.364594        -9.9211
  75   2.0000      -0.361688        -9.8420
  76   2.0000      -0.344172        -9.3654
  77   2.0000      -0.321652        -8.7526
  78   2.0000      -0.285086        -7.7576
  79   2.0000      -0.253708        -6.9037
  80   2.0000      -0.234293        -6.3754
  81   2.0000      -0.231456        -6.2982
  82   2.0000      -0.229853        -6.2546
  83   2.0000      -0.221246        -6.0204
  84   2.0000      -0.205114        -5.5814
  85   2.0000      -0.197055        -5.3621
  86   2.0000      -0.154971        -4.2170
  87   0.0000       0.135336         3.6827
  88   0.0000       0.170300         4.6341
  89   0.0000       0.185085         5.0364
  90   0.0000       0.193397         5.2626
  91   0.0000       0.211173         5.7463

MULLIKEN ATOMIC CHARGES
-----------------------
   0 H :    0.110802
   1 C :   -0.307432
   2 H :    0.106724
   3 H :    0.073080
   4 C :   -0.143059
   5 H :    0.077604
   6 H :    0.122351
   7 C :   -0.107744
   8 H :    0.176971
   9 H :    0.103697
  10 N :   -0.159102
  11 H :    0.159327
  12 C :    0.357991
  13 N :   -0.263381
  14 H :    0.261971
  15 H :    0.151671
  16 N :   -0.229272
  17 H :    0.204675
  18 H :    0.170081
  19 C :   -0.408625
  20 H :    0.150088
  21 H :    0.170879
  22 C :    0.207511
  23 C :    0.389864
  24 O :   -0.526536
  25 O :   -0.645198
  26 O :   -0.598384
  27 C :    0.055774
  28 H :    0.090645
  29 C :   -0.235422
  30 H :    0.154772
  31 C :    0.094111
  32 C :   -0.170137
  33 H :    0.182502
  34 C :   -0.165296
  35 H :    0.133137
  36 C :    0.146526
  37 H :    0.095046
  38 O :   -0.422382
  39 H :    0.186158
  40 C :    0.409928
  41 O :   -0.584349
  42 O :   -0.577567
Sum of atomic charges:   -1.0000000

LOEWDIN ATOMIC CHARGES
----------------------
   0 H :   -0.035616
   1 C :    0.110269
   2 H :   -0.017481
   3 H :   -0.032064
   4 C :    0.046857
   5 H :   -0.034638
   6 H :   -0.023433
   7 C :    0.037401
   8 H :   -0.016202
   9 H :   -0.020996
  10 N :    0.430613
  11 H :   -0.063438
  12 C :   -0.253551
  13 N :    0.453196
  14 H :   -0.089761
  15 H :   -0.069059
  16 N :    0.484480
  17 H :   -0.048115
  18 H :   -0.065186
  19 C :    0.106357
  20 H :   -0.053602
  21 H :   -0.043170
  22 C :   -0.380222
  23 C :   -0.647617
  24 O :   -0.018297
  25 O :   -0.091292
  26 O :    0.049723
  27 C :    0.099888
  28 H :   -0.050713
  29 C :   -0.000465
  30 H :   -0.030841
  31 C :    0.046665
  32 C :    0.073686
  33 H :   -0.013699
  34 C :    0.053729
  35 H :   -0.034658
  36 C :   -0.153759
  37 H :   -0.035633
  38 O :    0.301501
  39 H :   -0.180966
  40 C :   -0.655610
  41 O :   -0.070043
  42 O :   -0.064237

  Mayer bond orders larger than 0.100000
B(  0-H ,  1-C ) :   0.9846 B(  1-C ,  2-H ) :   0.9795 B(  1-C ,  3-H ) :   0.9861
B(  1-C ,  4-C ) :   0.9494 B(  4-C ,  5-H ) :   0.9865 B(  4-C ,  6-H ) :   0.9731
B(  4-C ,  7-C ) :   0.9538 B(  7-C ,  8-H ) :   0.9414 B(  7-C ,  9-H ) :   0.9866
B(  7-C , 10-N ) :   0.9086 B( 10-N , 11-H ) :   0.9759 B( 10-N , 12-C ) :   1.3663
B( 12-C , 13-N ) :   1.3386 B( 12-C , 16-N ) :   1.3478 B( 13-N , 14-H ) :   0.8487
B( 13-N , 15-H ) :   0.9770 B( 14-H , 25-O ) :   0.1405 B( 16-N , 17-H ) :   0.9545
B( 16-N , 18-H ) :   0.9654 B( 19-C , 20-H ) :   0.9714 B( 19-C , 21-H ) :   0.9473
B( 19-C , 22-C ) :   1.4350 B( 19-C , 31-C ) :   0.2825 B( 22-C , 23-C ) :   0.8972
B( 22-C , 26-O ) :   1.4672 B( 23-C , 24-O ) :   1.9297 B( 23-C , 25-O ) :   1.5609
B( 26-O , 27-C ) :   0.2376 B( 27-C , 28-H ) :   0.9770 B( 27-C , 29-C ) :   1.4330
B( 27-C , 36-C ) :   0.9463 B( 29-C , 30-H ) :   0.9580 B( 29-C , 31-C ) :   1.3341
B( 31-C , 32-C ) :   1.0516 B( 31-C , 40-C ) :   0.8262 B( 31-C , 41-O ) :  -0.1250
B( 31-C , 42-O ) :  -0.1336 B( 32-C , 33-H ) :   0.9452 B( 32-C , 34-C ) :   1.7728
B( 34-C , 35-H ) :   0.9756 B( 34-C , 36-C ) :   0.9800 B( 36-C , 37-H ) :   0.9751
B( 36-C , 38-O ) :   0.9422 B( 38-O , 39-H ) :   1.0111 B( 40-C , 41-O ) :   1.8610
B( 40-C , 42-O ) :   1.8704

E(0)                                       ...  -1154.610461537
E(0)                                       ...  -1154.610461537
E(CORR)(strong-pairs)                      ...     -4.403511512
E(CORR)(weak-pairs)                        ...     -0.008741251
E(CORR)(corrected)                         ...     -4.412252763
E(TOT)                                     ...  -1159.022714300
E(CCSD(T))                                 ...  -1159.225288160
FINAL SINGLE POINT ENERGY     -1159.225288159928

DIPOLE MOMENT
-------------
                                X             Y             Z
Electronic contribution:     22.10913      -9.77394       0.13854
Nuclear contribution   :    -31.53763      12.41113       5.08040
                        -----------------------------------------
Total Dipole Moment    :     -9.42851       2.63719       5.21894
                        -----------------------------------------
Magnitude (a.u.)       :     11.09454
Magnitude (Debye)      :     28.20008

Rotational constants in cm-1:     0.015889     0.005155     0.004891
Rotational constants in MHz :   476.341170   154.530320   146.614867

                             ****ORCA TERMINATED NORMALLY****
TOTAL RUN TIME: 0 days 6 hours 29 minutes 34 seconds 304 msec
