                         Program Version 5.0.3 -  RELEASE  -
|  1> ! DLPNO-CCSD(T) cc-pVQZ cc-pVQZ/C TIGHTPNO TIGHTSCF
|  2> %maxcore 10000
|  3> %pal
|  4> nprocs 16
|  5> end
|  6> *xyz -1 1
|  7> H 4.850893220835 12.924978060495 7.689785237142
|  8> C 5.342610000000 11.981000000000 7.872870000000
|  9> H 5.829600000000 11.689700000000 6.936930000000
| 10> H 4.594560000000 11.209900000000 8.077780000000
| 11> C 6.365050000000 11.900400000000 8.987300000000
| 12> H 5.863200000000 11.963600000000 9.956130000000
| 13> H 7.059210000000 12.738100000000 8.921720000000
| 14> C 7.113840000000 10.570900000000 8.897970000000
| 15> H 7.851430000000 10.602400000000 8.100980000000
| 16> H 6.411130000000 9.778880000000 8.645860000000
| 17> N 7.748350000000 10.134400000000 10.134500000000
| 18> H 7.529230000000 9.209770000000 10.505000000000
| 19> C 8.667230000000 10.793200000000 10.821300000000
| 20> N 9.209800000000 11.916100000000 10.323800000000
| 21> H 9.486870000000 11.780700000000 9.343020000000
| 22> H 9.976520000000 12.267200000000 10.874000000000
| 23> N 9.004220000000 10.340100000000 12.019000000000
| 24> H 9.673000000000 10.831000000000 12.598700000000
| 25> H 8.651600000000 9.432330000000 12.294700000000
| 26> C 13.405400000000 10.597500000000 9.133950000000
| 27> H 13.918400000000 10.393600000000 10.062700000000
| 28> H 13.953100000000 11.043900000000 8.318060000000
| 29> C 12.123500000000 10.303500000000 8.983780000000
| 30> C 11.395300000000 10.659800000000 7.701590000000
| 31> O 12.029100000000 10.686900000000 6.643140000000
| 32> O 10.160600000000 10.934000000000 7.837080000000
| 33> O 11.381300000000 9.787680000000 10.016900000000
| 34> C 11.269000000000 8.344330000000 10.160900000000
| 35> H 10.876700000000 8.219880000000 11.168400000000
| 36> C 12.636200000000 7.767670000000 10.058000000000
| 37> H 13.331100000000 7.965670000000 10.859500000000
| 38> C 13.082500000000 7.225950000000 8.930980000000
| 39> C 12.158600000000 7.030840000000 7.812800000000
| 40> H 12.585700000000 6.704530000000 6.875190000000
| 41> C 10.852000000000 7.249340000000 7.930780000000
| 42> H 10.196900000000 7.083000000000 7.083920000000
| 43> C 10.228700000000 7.770170000000 9.188070000000
| 44> H 9.583710000000 8.610870000000 8.920760000000
| 45> O 9.449030000000 6.740250000000 9.775530000000
| 46> H 8.879960000000 7.105470000000 10.501100000000
| 47> C 14.572900000000 7.053340000000 8.722920000000
| 48> O 15.303400000000 6.888440000000 9.722510000000
| 49> O 14.964200000000 7.180140000000 7.537060000000
| 50> *
| 51>
| 52>                          ****END OF INPUT****

CARTESIAN COORDINATES (ANGSTROEM)
---------------------------------
  H      4.850893   12.924978    7.689785
  C      5.342610   11.981000    7.872870
  H      5.829600   11.689700    6.936930
  H      4.594560   11.209900    8.077780
  C      6.365050   11.900400    8.987300
  H      5.863200   11.963600    9.956130
  H      7.059210   12.738100    8.921720
  C      7.113840   10.570900    8.897970
  H      7.851430   10.602400    8.100980
  H      6.411130    9.778880    8.645860
  N      7.748350   10.134400   10.134500
  H      7.529230    9.209770   10.505000
  C      8.667230   10.793200   10.821300
  N      9.209800   11.916100   10.323800
  H      9.486870   11.780700    9.343020
  H      9.976520   12.267200   10.874000
  N      9.004220   10.340100   12.019000
  H      9.673000   10.831000   12.598700
  H      8.651600    9.432330   12.294700
  C     13.405400   10.597500    9.133950
  H     13.918400   10.393600   10.062700
  H     13.953100   11.043900    8.318060
  C     12.123500   10.303500    8.983780
  C     11.395300   10.659800    7.701590
  O     12.029100   10.686900    6.643140
  O     10.160600   10.934000    7.837080
  O     11.381300    9.787680   10.016900
  C     11.269000    8.344330   10.160900
  H     10.876700    8.219880   11.168400
  C     12.636200    7.767670   10.058000
  H     13.331100    7.965670   10.859500
  C     13.082500    7.225950    8.930980
  C     12.158600    7.030840    7.812800
  H     12.585700    6.704530    6.875190
  C     10.852000    7.249340    7.930780
  H     10.196900    7.083000    7.083920
  C     10.228700    7.770170    9.188070
  H      9.583710    8.610870    8.920760
  O      9.449030    6.740250    9.775530
  H      8.879960    7.105470   10.501100
  C     14.572900    7.053340    8.722920
  O     15.303400    6.888440    9.722510
  O     14.964200    7.180140    7.537060

 Total Charge           Charge          ....   -1
 Multiplicity           Mult            ....    1
 Number of Electrons    NEL             ....  174
 Basis Dimension        Dim             .... 1865

ORBITAL ENERGIES
----------------

  NO   OCC          E(Eh)            E(eV)
   0   2.0000     -20.476502      -557.1939
   1   2.0000     -20.451095      -556.5026
   2   2.0000     -20.347406      -553.6811
   3   2.0000     -20.331063      -553.2364
   4   2.0000     -20.288577      -552.0803
   5   2.0000     -20.287730      -552.0572
   6   2.0000     -15.585474      -424.1023
   7   2.0000     -15.576208      -423.8502
   8   2.0000     -15.535371      -422.7389
   9   2.0000     -11.369805      -309.3881
  10   2.0000     -11.221880      -305.3629
  11   2.0000     -11.182491      -304.2911
  12   2.0000     -11.180368      -304.2333
  13   2.0000     -11.179584      -304.2119
  14   2.0000     -11.175218      -304.0931
  15   2.0000     -11.170873      -303.9749
  16   2.0000     -11.144457      -303.2561
  17   2.0000     -11.138097      -303.0830
  18   2.0000     -11.095913      -301.9352
  19   2.0000     -11.092555      -301.8438
  20   2.0000     -11.084397      -301.6218
  21   2.0000     -11.084047      -301.6123
  22   2.0000     -11.080293      -301.5101
  23   2.0000      -1.331043       -36.2195
  24   2.0000      -1.282271       -34.8924
  25   2.0000      -1.269130       -34.5348
  26   2.0000      -1.221802       -33.2469
  27   2.0000      -1.197995       -32.5991
  28   2.0000      -1.175068       -31.9752
  29   2.0000      -1.167889       -31.7799
  30   2.0000      -1.119370       -30.4596
  31   2.0000      -1.067430       -29.0463
  32   2.0000      -1.023453       -27.8496
  33   2.0000      -0.998351       -27.1665
  34   2.0000      -0.917215       -24.9587
  35   2.0000      -0.911432       -24.8013
  36   2.0000      -0.888108       -24.1666
  37   2.0000      -0.860050       -23.4032
  38   2.0000      -0.825761       -22.4701
  39   2.0000      -0.778316       -21.1790
  40   2.0000      -0.755014       -20.5450
  41   2.0000      -0.746666       -20.3178
  42   2.0000      -0.728384       -19.8203
  43   2.0000      -0.698950       -19.0194
  44   2.0000      -0.690947       -18.8016
  45   2.0000      -0.643409       -17.5080
  46   2.0000      -0.634672       -17.2703
  47   2.0000      -0.615264       -16.7422
  48   2.0000      -0.608015       -16.5449
  49   2.0000      -0.603725       -16.4282
  50   2.0000      -0.599316       -16.3082
  51   2.0000      -0.579662       -15.7734
  52   2.0000      -0.570881       -15.5345
  53   2.0000      -0.557572       -15.1723
  54   2.0000      -0.543190       -14.7810
  55   2.0000      -0.527210       -14.3461
  56   2.0000      -0.519364       -14.1326
  57   2.0000      -0.513208       -13.9651
  58   2.0000      -0.500324       -13.6145
  59   2.0000      -0.489163       -13.3108
  60   2.0000      -0.483091       -13.1456
  61   2.0000      -0.471801       -12.8384
  62   2.0000      -0.463776       -12.6200
  63   2.0000      -0.450392       -12.2558
  64   2.0000      -0.447811       -12.1856
  65   2.0000      -0.442468       -12.0402
  66   2.0000      -0.440655       -11.9908
  67   2.0000      -0.434701       -11.8288
  68   2.0000      -0.418980       -11.4010
  69   2.0000      -0.412952       -11.2370
  70   2.0000      -0.404380       -11.0037
  71   2.0000      -0.399042       -10.8585
  72   2.0000      -0.388371       -10.5681
  73   2.0000      -0.381424       -10.3791
  74   2.0000      -0.375402       -10.2152
  75   2.0000      -0.365097        -9.9348
  76   2.0000      -0.351114        -9.5543
  77   2.0000      -0.316545        -8.6136
  78   2.0000      -0.289459        -7.8766
  79   2.0000      -0.271483        -7.3874
  80   2.0000      -0.253965        -6.9107
  81   2.0000      -0.248669        -6.7666
  82   2.0000      -0.220112        -5.9895
  83   2.0000      -0.216184        -5.8827
  84   2.0000      -0.209731        -5.7071
  85   2.0000      -0.193215        -5.2577
  86   2.0000      -0.179163        -4.8753
  87   0.0000       0.115407         3.1404
  88   0.0000       0.149291         4.0624
  89   0.0000       0.158763         4.3202
  90   0.0000       0.179020         4.8714
  91   0.0000       0.187135         5.0922

MULLIKEN ATOMIC CHARGES
-----------------------
   0 H :    0.097197
   1 C :   -0.221231
   2 H :    0.083683
   3 H :    0.045011
   4 C :   -0.115557
   5 H :    0.056445
   6 H :    0.092584
   7 C :   -0.031179
   8 H :    0.126866
   9 H :    0.109509
  10 N :   -0.266171
  11 H :    0.160023
  12 C :    0.663310
  13 N :   -0.352077
  14 H :    0.272312
  15 H :    0.141128
  16 N :   -0.383344
  17 H :    0.211264
  18 H :    0.178963
  19 C :   -0.216786
  20 H :    0.128582
  21 H :    0.150064
  22 C :    0.039531
  23 C :    0.641436
  24 O :   -0.599623
  25 O :   -0.744017
  26 O :   -0.560511
  27 C :    0.181391
  28 H :    0.090646
  29 C :   -0.183018
  30 H :    0.159033
  31 C :   -0.170759
  32 C :   -0.138059
  33 H :    0.189914
  34 C :   -0.160127
  35 H :    0.123161
  36 C :    0.173818
  37 H :    0.053639
  38 O :   -0.489807
  39 H :    0.193903
  40 C :    0.658352
  41 O :   -0.702279
  42 O :   -0.687220
Sum of atomic charges:   -1.0000000

LOEWDIN ATOMIC CHARGES
----------------------
   0 H :   -0.101402
   1 C :    0.314362
   2 H :   -0.077839
   3 H :   -0.091788
   4 C :    0.145508
   5 H :   -0.091254
   6 H :   -0.084265
   7 C :    0.096665
   8 H :   -0.082037
   9 H :   -0.076728
  10 N :    0.687386
  11 H :   -0.187336
  12 C :   -0.505639
  13 N :    0.814320
  14 H :   -0.256575
  15 H :   -0.206849
  16 N :    0.832650
  17 H :   -0.181451
  18 H :   -0.194706
  19 C :    0.267183
  20 H :   -0.119534
  21 H :   -0.103492
  22 C :   -0.434475
  23 C :   -1.095762
  24 O :    0.229876
  25 O :    0.180098
  26 O :    0.553824
  27 C :   -0.215131
  28 H :   -0.107195
  29 C :    0.114380
  30 H :   -0.102515
  31 C :   -0.088856
  32 C :    0.130434
  33 H :   -0.081268
  34 C :    0.103855
  35 H :   -0.110233
  36 C :   -0.251619
  37 H :   -0.099665
  38 O :    0.680529
  39 H :   -0.415256
  40 C :   -1.100445
  41 O :    0.149819
  42 O :    0.162425

  Mayer bond orders larger than 0.100000
B(  0-H ,  1-C ) :   0.9969 B(  1-C ,  2-H ) :   0.9850 B(  1-C ,  3-H ) :   0.9932
B(  1-C ,  4-C ) :   0.9563 B(  4-C ,  5-H ) :   0.9906 B(  4-C ,  6-H ) :   0.9794
B(  4-C ,  7-C ) :   0.9661 B(  7-C ,  8-H ) :   0.9482 B(  7-C ,  9-H ) :   0.9844
B(  7-C , 10-N ) :   0.9172 B( 10-N , 11-H ) :   0.9853 B( 10-N , 12-C ) :   1.3331
B( 12-C , 13-N ) :   1.3421 B( 12-C , 16-N ) :   1.3139 B( 13-N , 14-H ) :   0.8452
B( 13-N , 15-H ) :   1.0062 B( 14-H , 25-O ) :   0.1515 B( 16-N , 17-H ) :   0.9668
B( 16-N , 18-H ) :   0.9762 B( 19-C , 20-H ) :   1.0008 B( 19-C , 21-H ) :   0.9567
B( 19-C , 22-C ) :   1.8970 B( 22-C , 23-C ) :   0.8377 B( 22-C , 26-O ) :   0.8910
B( 23-C , 24-O ) :   1.9210 B( 23-C , 25-O ) :   1.5015 B( 26-O , 27-C ) :   0.8225
B( 27-C , 28-H ) :   0.9978 B( 27-C , 29-C ) :   0.9623 B( 27-C , 36-C ) :   0.8983
B( 29-C , 30-H ) :   0.9409 B( 29-C , 31-C ) :   1.8541 B( 31-C , 32-C ) :   1.0307
B( 31-C , 40-C ) :   0.8028 B( 31-C , 41-O ) :  -0.1360 B( 31-C , 42-O ) :  -0.1321
B( 32-C , 33-H ) :   0.9429 B( 32-C , 34-C ) :   1.8027 B( 34-C , 35-H ) :   0.9810
B( 34-C , 36-C ) :   0.9520 B( 36-C , 37-H ) :   0.9989 B( 36-C , 38-O ) :   0.9285
B( 38-O , 39-H ) :   1.0120 B( 40-C , 41-O ) :   1.7908 B( 40-C , 42-O ) :   1.7872

E(0)                                       ...  -1154.749234312
E(0)                                       ...  -1154.749234312
E(CORR)(strong-pairs)                      ...     -4.638876588
E(CORR)(weak-pairs)                        ...     -0.012443223
E(CORR)(corrected)                         ...     -4.651319811
E(TOT)                                     ...  -1159.400554122
E(CCSD(T))                                 ...  -1159.613573931
FINAL SINGLE POINT ENERGY     -1159.613573931121

DIPOLE MOMENT
-------------
                                X             Y             Z
Electronic contribution:     21.94041     -10.36789       0.32823
Nuclear contribution   :    -31.87353      13.99733       5.19914
                        -----------------------------------------
Total Dipole Moment    :     -9.93312       3.62945       5.52737
                        -----------------------------------------
Magnitude (a.u.)       :     11.93279
Magnitude (Debye)      :     30.33074

Rotational constants in cm-1:     0.015831     0.005012     0.004787
Rotational constants in MHz :   474.610894   150.242702   143.525207

                             ****ORCA TERMINATED NORMALLY****
TOTAL RUN TIME: 1 days 21 hours 13 minutes 25 seconds 508 msec
