                         Program Version 5.0.3 -  RELEASE  -
|  1> ! DLPNO-CCSD(T) cc-pVTZ cc-pVTZ/C TIGHTPNO TIGHTSCF
|  2> %maxcore 10000
|  3> %pal
|  4> nprocs 16
|  5> end
|  6> *xyz -1 1
|  7> H 4.327180869242 12.918508148088 8.298778434077
|  8> C 4.615993000000 11.944336000000 8.664806000000
|  9> H 5.138192000000 11.430530000000 7.853092000000
| 10> H 3.716688000000 11.360042000000 8.854892000000
| 11> C 5.487603000000 11.843433000000 9.931391000000
| 12> H 5.057652000000 11.097993000000 10.602974000000
| 13> H 5.510596000000 12.783618000000 10.482553000000
| 14> C 6.882980000000 11.448883000000 9.529757000000
| 15> H 7.271310000000 12.225406000000 8.869678000000
| 16> H 6.830050000000 10.532118000000 8.944906000000
| 17> N 7.904584000000 11.196449000000 10.534633000000
| 18> H 8.771557000000 10.976197000000 10.047701000000
| 19> C 8.096940000000 11.616991000000 11.768281000000
| 20> N 7.101201000000 12.002341000000 12.594746000000
| 21> H 6.199210000000 11.588095000000 12.450849000000
| 22> H 7.396085000000 12.067521000000 13.561656000000
| 23> N 9.331381000000 11.679933000000 12.226567000000
| 24> H 9.475504000000 11.803926000000 13.224908000000
| 25> H 10.095709000000 11.366353000000 11.645908000000
| 26> C 13.100505000000 10.089732000000 9.269804000000
| 27> H 13.602674000000 10.531468000000 10.128736000000
| 28> H 13.601394000000 10.478550000000 8.386425000000
| 29> C 11.690086000000 10.601327000000 9.368410000000
| 30> C 10.756724000000 10.985777000000 8.181964000000
| 31> O 11.216558000000 11.072865000000 7.027178000000
| 32> O 9.581914000000 11.232388000000 8.476949000000
| 33> O 11.216126000000 10.763856000000 10.462554000000
| 34> C 11.201097000000 8.044561000000 10.842912000000
| 35> H 10.654234000000 8.107740000000 11.771196000000
| 36> C 12.494048000000 8.307108000000 10.799960000000
| 37> H 13.036138000000 8.604872000000 11.682912000000
| 38> C 13.208453000000 8.502246000000 9.506997000000
| 39> C 12.543655000000 7.672960000000 8.435843000000
| 40> H 13.169604000000 7.315769000000 7.625673000000
| 41> C 11.267059000000 7.322894000000 8.492970000000
| 42> H 10.820144000000 6.735778000000 7.699067000000
| 43> C 10.385010000000 7.672247000000 9.645186000000
| 44> H 9.746387000000 8.519425000000 9.355946000000
| 45> O 9.557077000000 6.571298000000 9.933614000000
| 46> H 8.861058000000 6.871424000000 10.603517000000
| 47> C 14.735286000000 8.171176000000 9.569384000000
| 48> O 15.304152000000 8.208381000000 10.690487000000
| 49> O 15.304673000000 7.924526000000 8.499763000000
| 50> *
| 51>
| 52>                          ****END OF INPUT****

CARTESIAN COORDINATES (ANGSTROEM)
---------------------------------
  H      4.327181   12.918508    8.298778
  C      4.615993   11.944336    8.664806
  H      5.138192   11.430530    7.853092
  H      3.716688   11.360042    8.854892
  C      5.487603   11.843433    9.931391
  H      5.057652   11.097993   10.602974
  H      5.510596   12.783618   10.482553
  C      6.882980   11.448883    9.529757
  H      7.271310   12.225406    8.869678
  H      6.830050   10.532118    8.944906
  N      7.904584   11.196449   10.534633
  H      8.771557   10.976197   10.047701
  C      8.096940   11.616991   11.768281
  N      7.101201   12.002341   12.594746
  H      6.199210   11.588095   12.450849
  H      7.396085   12.067521   13.561656
  N      9.331381   11.679933   12.226567
  H      9.475504   11.803926   13.224908
  H     10.095709   11.366353   11.645908
  C     13.100505   10.089732    9.269804
  H     13.602674   10.531468   10.128736
  H     13.601394   10.478550    8.386425
  C     11.690086   10.601327    9.368410
  C     10.756724   10.985777    8.181964
  O     11.216558   11.072865    7.027178
  O      9.581914   11.232388    8.476949
  O     11.216126   10.763856   10.462554
  C     11.201097    8.044561   10.842912
  H     10.654234    8.107740   11.771196
  C     12.494048    8.307108   10.799960
  H     13.036138    8.604872   11.682912
  C     13.208453    8.502246    9.506997
  C     12.543655    7.672960    8.435843
  H     13.169604    7.315769    7.625673
  C     11.267059    7.322894    8.492970
  H     10.820144    6.735778    7.699067
  C     10.385010    7.672247    9.645186
  H      9.746387    8.519425    9.355946
  O      9.557077    6.571298    9.933614
  H      8.861058    6.871424   10.603517
  C     14.735286    8.171176    9.569384
  O     15.304152    8.208381   10.690487
  O     15.304673    7.924526    8.499763

 Total Charge           Charge          ....   -1
 Multiplicity           Mult            ....    1
 Number of Electrons    NEL             ....  174
 Basis Dimension        Dim             ....  970

ORBITAL ENERGIES
----------------

  NO   OCC          E(Eh)            E(eV)
   0   2.0000     -20.450472      -556.4856
   1   2.0000     -20.439910      -556.1982
   2   2.0000     -20.359835      -554.0193
   3   2.0000     -20.346017      -553.6433
   4   2.0000     -20.291937      -552.1717
   5   2.0000     -20.288930      -552.0898
   6   2.0000     -15.579833      -423.9488
   7   2.0000     -15.549871      -423.1335
   8   2.0000     -15.537329      -422.7922
   9   2.0000     -11.361211      -309.1543
  10   2.0000     -11.212643      -305.1115
  11   2.0000     -11.209809      -305.0344
  12   2.0000     -11.194870      -304.6279
  13   2.0000     -11.192728      -304.5696
  14   2.0000     -11.177769      -304.1625
  15   2.0000     -11.159516      -303.6659
  16   2.0000     -11.139908      -303.1323
  17   2.0000     -11.105459      -302.1949
  18   2.0000     -11.103569      -302.1435
  19   2.0000     -11.087716      -301.7121
  20   2.0000     -11.086462      -301.6780
  21   2.0000     -11.085239      -301.6447
  22   2.0000     -11.082589      -301.5726
  23   2.0000      -1.321689       -35.9650
  24   2.0000      -1.301766       -35.4228
  25   2.0000      -1.249183       -33.9920
  26   2.0000      -1.242070       -33.7984
  27   2.0000      -1.186812       -32.2948
  28   2.0000      -1.182437       -32.1758
  29   2.0000      -1.167034       -31.7566
  30   2.0000      -1.132707       -30.8225
  31   2.0000      -1.070840       -29.1390
  32   2.0000      -1.025636       -27.9090
  33   2.0000      -1.003797       -27.3147
  34   2.0000      -0.907149       -24.6848
  35   2.0000      -0.904659       -24.6170
  36   2.0000      -0.884150       -24.0589
  37   2.0000      -0.830835       -22.6082
  38   2.0000      -0.824316       -22.4308
  39   2.0000      -0.792042       -21.5526
  40   2.0000      -0.738419       -20.0934
  41   2.0000      -0.736427       -20.0392
  42   2.0000      -0.707756       -19.2590
  43   2.0000      -0.704216       -19.1627
  44   2.0000      -0.671635       -18.2761
  45   2.0000      -0.651799       -17.7364
  46   2.0000      -0.640241       -17.4218
  47   2.0000      -0.622863       -16.9490
  48   2.0000      -0.599073       -16.3016
  49   2.0000      -0.590011       -16.0550
  50   2.0000      -0.576962       -15.6999
  51   2.0000      -0.570908       -15.5352
  52   2.0000      -0.560922       -15.2635
  53   2.0000      -0.553023       -15.0485
  54   2.0000      -0.527427       -14.3520
  55   2.0000      -0.521354       -14.1868
  56   2.0000      -0.511062       -13.9067
  57   2.0000      -0.505424       -13.7533
  58   2.0000      -0.502071       -13.6620
  59   2.0000      -0.498050       -13.5526
  60   2.0000      -0.470575       -12.8050
  61   2.0000      -0.467594       -12.7239
  62   2.0000      -0.452232       -12.3059
  63   2.0000      -0.451880       -12.2963
  64   2.0000      -0.450274       -12.2526
  65   2.0000      -0.449551       -12.2329
  66   2.0000      -0.445245       -12.1157
  67   2.0000      -0.435503       -11.8506
  68   2.0000      -0.416230       -11.3262
  69   2.0000      -0.413378       -11.2486
  70   2.0000      -0.406803       -11.0697
  71   2.0000      -0.402294       -10.9470
  72   2.0000      -0.386517       -10.5177
  73   2.0000      -0.381736       -10.3876
  74   2.0000      -0.359439        -9.7808
  75   2.0000      -0.351946        -9.5769
  76   2.0000      -0.343588        -9.3495
  77   2.0000      -0.333162        -9.0658
  78   2.0000      -0.305049        -8.3008
  79   2.0000      -0.280377        -7.6294
  80   2.0000      -0.257349        -7.0028
  81   2.0000      -0.253507        -6.8983
  82   2.0000      -0.239157        -6.5078
  83   2.0000      -0.220806        -6.0084
  84   2.0000      -0.207823        -5.6551
  85   2.0000      -0.195183        -5.3112
  86   2.0000      -0.193025        -5.2525
  87   0.0000       0.141936         3.8623
  88   0.0000       0.173629         4.7247
  89   0.0000       0.196367         5.3434
  90   0.0000       0.207067         5.6346
  91   0.0000       0.219619         5.9761

MULLIKEN ATOMIC CHARGES
-----------------------
   0 H :    0.112023
   1 C :   -0.311537
   2 H :    0.111000
   3 H :    0.088975
   4 C :   -0.218719
   5 H :    0.074393
   6 H :    0.106182
   7 C :   -0.010773
   8 H :    0.138024
   9 H :    0.117213
  10 N :   -0.221923
  11 H :    0.265526
  12 C :    0.320455
  13 N :   -0.283487
  14 H :    0.199788
  15 H :    0.166785
  16 N :   -0.279111
  17 H :    0.163927
  18 H :    0.285345
  19 C :   -0.144725
  20 H :    0.106941
  21 H :    0.135476
  22 C :    0.212923
  23 C :    0.355216
  24 O :   -0.524965
  25 O :   -0.565226
  26 O :   -0.430407
  27 C :   -0.212614
  28 H :    0.076220
  29 C :   -0.154484
  30 H :    0.146548
  31 C :    0.027470
  32 C :   -0.167849
  33 H :    0.178004
  34 C :   -0.221609
  35 H :    0.123860
  36 C :    0.224493
  37 H :    0.052041
  38 O :   -0.440524
  39 H :    0.206658
  40 C :    0.369642
  41 O :   -0.602128
  42 O :   -0.575047
Sum of atomic charges:   -1.0000000

LOEWDIN ATOMIC CHARGES
----------------------
   0 H :   -0.035237
   1 C :    0.129211
   2 H :   -0.016615
   3 H :   -0.031050
   4 C :    0.039684
   5 H :   -0.038625
   6 H :   -0.034572
   7 C :    0.018241
   8 H :   -0.008672
   9 H :   -0.010845
  10 N :    0.437789
  11 H :   -0.116290
  12 C :   -0.275959
  13 N :    0.437575
  14 H :   -0.073516
  15 H :   -0.065385
  16 N :    0.492564
  17 H :   -0.063515
  18 H :   -0.135229
  19 C :    0.090269
  20 H :   -0.014764
  21 H :   -0.016018
  22 C :   -0.225225
  23 C :   -0.676188
  24 O :   -0.029127
  25 O :    0.004914
  26 O :    0.200183
  27 C :   -0.000871
  28 H :   -0.062540
  29 C :    0.061011
  30 H :   -0.030021
  31 C :   -0.090332
  32 C :    0.071558
  33 H :   -0.023441
  34 C :    0.012708
  35 H :   -0.040710
  36 C :   -0.178542
  37 H :   -0.042056
  38 O :    0.284909
  39 H :   -0.143442
  40 C :   -0.649166
  41 O :   -0.100671
  42 O :   -0.051990

  Mayer bond orders larger than 0.100000
B(  0-H ,  1-C ) :   0.9828 B(  1-C ,  2-H ) :   0.9855 B(  1-C ,  3-H ) :   0.9916
B(  1-C ,  4-C ) :   0.9359 B(  4-C ,  5-H ) :   0.9850 B(  4-C ,  6-H ) :   0.9726
B(  4-C ,  7-C ) :   0.9391 B(  7-C ,  8-H ) :   0.9616 B(  7-C ,  9-H ) :   0.9763
B(  7-C , 10-N ) :   0.9303 B( 10-N , 11-H ) :   0.8296 B( 10-N , 12-C ) :   1.4912
B( 11-H , 25-O ) :   0.1452 B( 12-C , 13-N ) :   1.2239 B( 12-C , 16-N ) :   1.3872
B( 13-N , 14-H ) :   0.9548 B( 13-N , 15-H ) :   0.9732 B( 16-N , 17-H ) :   0.9723
B( 16-N , 18-H ) :   0.8522 B( 19-C , 20-H ) :   0.9687 B( 19-C , 21-H ) :   0.9621
B( 19-C , 22-C ) :   0.9044 B( 19-C , 31-C ) :   0.9358 B( 22-C , 23-C ) :   0.8594
B( 22-C , 26-O ) :   1.8405 B( 23-C , 24-O ) :   1.9470 B( 23-C , 25-O ) :   1.6603
B( 27-C , 28-H ) :   0.9849 B( 27-C , 29-C ) :   1.8001 B( 27-C , 36-C ) :   0.9559
B( 29-C , 30-H ) :   0.9667 B( 29-C , 31-C ) :   0.9628 B( 31-C , 32-C ) :   0.9652
B( 31-C , 40-C ) :   0.8388 B( 32-C , 33-H ) :   0.9437 B( 32-C , 34-C ) :   1.8254
B( 34-C , 35-H ) :   0.9773 B( 34-C , 36-C ) :   0.9679 B( 36-C , 37-H ) :   0.9889
B( 36-C , 38-O ) :   0.9646 B( 38-O , 39-H ) :   0.9952 B( 40-C , 41-O ) :   1.8430
B( 40-C , 42-O ) :   1.8621

E(0)                                       ...  -1154.695396480
E(0)                                       ...  -1154.695396480
E(CORR)(strong-pairs)                      ...     -4.385250669
E(CORR)(weak-pairs)                        ...     -0.008020403
E(CORR)(corrected)                         ...     -4.393271072
E(TOT)                                     ...  -1159.088667552
E(CCSD(T))                                 ...  -1159.281364081
FINAL SINGLE POINT ENERGY     -1159.281364080553

DIPOLE MOMENT
-------------
                                X             Y             Z
Electronic contribution:     24.36379      -6.43022      -1.10734
Nuclear contribution   :    -34.53240      10.37142       6.16255
                        -----------------------------------------
Total Dipole Moment    :    -10.16861       3.94120       5.05521
                        -----------------------------------------
Magnitude (a.u.)       :     12.02035
Magnitude (Debye)      :     30.55330

Rotational constants in cm-1:     0.015164     0.004348     0.004257
Rotational constants in MHz :   454.593354   130.352518   127.630864

                             ****ORCA TERMINATED NORMALLY****
TOTAL RUN TIME: 0 days 2 hours 12 minutes 50 seconds 584 msec
