                         Program Version 5.0.3 -  RELEASE  -
|  1> ! DLPNO-CCSD(T) cc-pVTZ cc-pVTZ/C TIGHTPNO TIGHTSCF
|  2> %maxcore 10000
|  3> %pal
|  4> nprocs 16
|  5> end
|  6> *xyz -1 1
|  7> H 4.850893220835 12.924978060495 7.689785237142
|  8> C 5.342610000000 11.981000000000 7.872870000000
|  9> H 5.829600000000 11.689700000000 6.936930000000
| 10> H 4.594560000000 11.209900000000 8.077780000000
| 11> C 6.365050000000 11.900400000000 8.987300000000
| 12> H 5.863200000000 11.963600000000 9.956130000000
| 13> H 7.059210000000 12.738100000000 8.921720000000
| 14> C 7.113840000000 10.570900000000 8.897970000000
| 15> H 7.851430000000 10.602400000000 8.100980000000
| 16> H 6.411130000000 9.778880000000 8.645860000000
| 17> N 7.748350000000 10.134400000000 10.134500000000
| 18> H 7.529230000000 9.209770000000 10.505000000000
| 19> C 8.667230000000 10.793200000000 10.821300000000
| 20> N 9.209800000000 11.916100000000 10.323800000000
| 21> H 9.486870000000 11.780700000000 9.343020000000
| 22> H 9.976520000000 12.267200000000 10.874000000000
| 23> N 9.004220000000 10.340100000000 12.019000000000
| 24> H 9.673000000000 10.831000000000 12.598700000000
| 25> H 8.651600000000 9.432330000000 12.294700000000
| 26> C 13.405400000000 10.597500000000 9.133950000000
| 27> H 13.918400000000 10.393600000000 10.062700000000
| 28> H 13.953100000000 11.043900000000 8.318060000000
| 29> C 12.123500000000 10.303500000000 8.983780000000
| 30> C 11.395300000000 10.659800000000 7.701590000000
| 31> O 12.029100000000 10.686900000000 6.643140000000
| 32> O 10.160600000000 10.934000000000 7.837080000000
| 33> O 11.381300000000 9.787680000000 10.016900000000
| 34> C 11.269000000000 8.344330000000 10.160900000000
| 35> H 10.876700000000 8.219880000000 11.168400000000
| 36> C 12.636200000000 7.767670000000 10.058000000000
| 37> H 13.331100000000 7.965670000000 10.859500000000
| 38> C 13.082500000000 7.225950000000 8.930980000000
| 39> C 12.158600000000 7.030840000000 7.812800000000
| 40> H 12.585700000000 6.704530000000 6.875190000000
| 41> C 10.852000000000 7.249340000000 7.930780000000
| 42> H 10.196900000000 7.083000000000 7.083920000000
| 43> C 10.228700000000 7.770170000000 9.188070000000
| 44> H 9.583710000000 8.610870000000 8.920760000000
| 45> O 9.449030000000 6.740250000000 9.775530000000
| 46> H 8.879960000000 7.105470000000 10.501100000000
| 47> C 14.572900000000 7.053340000000 8.722920000000
| 48> O 15.303400000000 6.888440000000 9.722510000000
| 49> O 14.964200000000 7.180140000000 7.537060000000
| 50> *
| 51>
| 52>                          ****END OF INPUT****

CARTESIAN COORDINATES (ANGSTROEM)
---------------------------------
  H      4.850893   12.924978    7.689785
  C      5.342610   11.981000    7.872870
  H      5.829600   11.689700    6.936930
  H      4.594560   11.209900    8.077780
  C      6.365050   11.900400    8.987300
  H      5.863200   11.963600    9.956130
  H      7.059210   12.738100    8.921720
  C      7.113840   10.570900    8.897970
  H      7.851430   10.602400    8.100980
  H      6.411130    9.778880    8.645860
  N      7.748350   10.134400   10.134500
  H      7.529230    9.209770   10.505000
  C      8.667230   10.793200   10.821300
  N      9.209800   11.916100   10.323800
  H      9.486870   11.780700    9.343020
  H      9.976520   12.267200   10.874000
  N      9.004220   10.340100   12.019000
  H      9.673000   10.831000   12.598700
  H      8.651600    9.432330   12.294700
  C     13.405400   10.597500    9.133950
  H     13.918400   10.393600   10.062700
  H     13.953100   11.043900    8.318060
  C     12.123500   10.303500    8.983780
  C     11.395300   10.659800    7.701590
  O     12.029100   10.686900    6.643140
  O     10.160600   10.934000    7.837080
  O     11.381300    9.787680   10.016900
  C     11.269000    8.344330   10.160900
  H     10.876700    8.219880   11.168400
  C     12.636200    7.767670   10.058000
  H     13.331100    7.965670   10.859500
  C     13.082500    7.225950    8.930980
  C     12.158600    7.030840    7.812800
  H     12.585700    6.704530    6.875190
  C     10.852000    7.249340    7.930780
  H     10.196900    7.083000    7.083920
  C     10.228700    7.770170    9.188070
  H      9.583710    8.610870    8.920760
  O      9.449030    6.740250    9.775530
  H      8.879960    7.105470   10.501100
  C     14.572900    7.053340    8.722920
  O     15.303400    6.888440    9.722510
  O     14.964200    7.180140    7.537060

 Total Charge           Charge          ....   -1
 Multiplicity           Mult            ....    1
 Number of Electrons    NEL             ....  174
 Basis Dimension        Dim             ....  970

ORBITAL ENERGIES
----------------

  NO   OCC          E(Eh)            E(eV)
   0   2.0000     -20.473911      -557.1234
   1   2.0000     -20.450294      -556.4808
   2   2.0000     -20.344977      -553.6150
   3   2.0000     -20.327830      -553.1484
   4   2.0000     -20.282840      -551.9241
   5   2.0000     -20.281674      -551.8924
   6   2.0000     -15.585972      -424.1159
   7   2.0000     -15.576940      -423.8701
   8   2.0000     -15.535475      -422.7418
   9   2.0000     -11.369654      -309.3840
  10   2.0000     -11.222055      -305.3676
  11   2.0000     -11.180881      -304.2472
  12   2.0000     -11.179269      -304.2034
  13   2.0000     -11.177711      -304.1610
  14   2.0000     -11.173341      -304.0421
  15   2.0000     -11.171446      -303.9905
  16   2.0000     -11.142265      -303.1964
  17   2.0000     -11.133040      -302.9454
  18   2.0000     -11.094085      -301.8854
  19   2.0000     -11.090884      -301.7983
  20   2.0000     -11.082155      -301.5608
  21   2.0000     -11.081447      -301.5415
  22   2.0000     -11.077734      -301.4405
  23   2.0000      -1.330377       -36.2014
  24   2.0000      -1.279610       -34.8200
  25   2.0000      -1.266318       -34.4583
  26   2.0000      -1.218250       -33.1503
  27   2.0000      -1.197387       -32.5826
  28   2.0000      -1.169438       -31.8220
  29   2.0000      -1.167017       -31.7562
  30   2.0000      -1.115789       -30.3622
  31   2.0000      -1.061775       -28.8924
  32   2.0000      -1.023075       -27.8393
  33   2.0000      -0.995541       -27.0901
  34   2.0000      -0.914432       -24.8829
  35   2.0000      -0.910843       -24.7853
  36   2.0000      -0.885179       -24.0870
  37   2.0000      -0.857292       -23.3281
  38   2.0000      -0.824988       -22.4491
  39   2.0000      -0.777555       -21.1583
  40   2.0000      -0.753973       -20.5166
  41   2.0000      -0.743714       -20.2375
  42   2.0000      -0.727458       -19.7951
  43   2.0000      -0.695857       -18.9352
  44   2.0000      -0.687880       -18.7182
  45   2.0000      -0.642171       -17.4743
  46   2.0000      -0.633390       -17.2354
  47   2.0000      -0.612138       -16.6571
  48   2.0000      -0.606978       -16.5167
  49   2.0000      -0.601141       -16.3579
  50   2.0000      -0.597501       -16.2588
  51   2.0000      -0.578327       -15.7371
  52   2.0000      -0.567772       -15.4499
  53   2.0000      -0.554341       -15.0844
  54   2.0000      -0.540460       -14.7067
  55   2.0000      -0.526046       -14.3144
  56   2.0000      -0.516162       -14.0455
  57   2.0000      -0.510328       -13.8867
  58   2.0000      -0.498952       -13.5772
  59   2.0000      -0.486015       -13.2251
  60   2.0000      -0.482280       -13.1235
  61   2.0000      -0.468194       -12.7402
  62   2.0000      -0.460274       -12.5247
  63   2.0000      -0.449540       -12.2326
  64   2.0000      -0.444696       -12.1008
  65   2.0000      -0.439740       -11.9659
  66   2.0000      -0.436852       -11.8874
  67   2.0000      -0.432822       -11.7777
  68   2.0000      -0.415946       -11.3185
  69   2.0000      -0.409871       -11.1532
  70   2.0000      -0.402056       -10.9405
  71   2.0000      -0.394204       -10.7268
  72   2.0000      -0.384506       -10.4629
  73   2.0000      -0.378561       -10.3012
  74   2.0000      -0.372873       -10.1464
  75   2.0000      -0.361098        -9.8260
  76   2.0000      -0.347570        -9.4579
  77   2.0000      -0.313247        -8.5239
  78   2.0000      -0.285957        -7.7813
  79   2.0000      -0.267463        -7.2780
  80   2.0000      -0.249986        -6.8025
  81   2.0000      -0.244387        -6.6501
  82   2.0000      -0.216941        -5.9033
  83   2.0000      -0.210455        -5.7268
  84   2.0000      -0.203652        -5.5417
  85   2.0000      -0.187251        -5.0954
  86   2.0000      -0.175878        -4.7859
  87   0.0000       0.133148         3.6232
  88   0.0000       0.173084         4.7099
  89   0.0000       0.186563         5.0766
  90   0.0000       0.203938         5.5494
  91   0.0000       0.208976         5.6865

MULLIKEN ATOMIC CHARGES
-----------------------
   0 H :    0.112162
   1 C :   -0.307777
   2 H :    0.107947
   3 H :    0.074401
   4 C :   -0.143349
   5 H :    0.077582
   6 H :    0.121092
   7 C :   -0.110054
   8 H :    0.178635
   9 H :    0.105617
  10 N :   -0.149653
  11 H :    0.162252
  12 C :    0.339603
  13 N :   -0.267664
  14 H :    0.265291
  15 H :    0.151575
  16 N :   -0.230240
  17 H :    0.203334
  18 H :    0.173970
  19 C :   -0.344335
  20 H :    0.140060
  21 H :    0.167141
  22 C :    0.133603
  23 C :    0.403499
  24 O :   -0.516336
  25 O :   -0.648615
  26 O :   -0.444758
  27 C :    0.164915
  28 H :    0.062570
  29 C :   -0.292395
  30 H :    0.162284
  31 C :    0.047198
  32 C :   -0.120748
  33 H :    0.171767
  34 C :   -0.218096
  35 H :    0.121355
  36 C :    0.118250
  37 H :    0.095563
  38 O :   -0.421147
  39 H :    0.175284
  40 C :    0.366945
  41 O :   -0.603918
  42 O :   -0.584810
Sum of atomic charges:   -1.0000000

LOEWDIN ATOMIC CHARGES
----------------------
   0 H :   -0.035188
   1 C :    0.111393
   2 H :   -0.017147
   3 H :   -0.031378
   4 C :    0.047138
   5 H :   -0.034784
   6 H :   -0.024669
   7 C :    0.038768
   8 H :   -0.016959
   9 H :   -0.020166
  10 N :    0.431466
  11 H :   -0.060287
  12 C :   -0.255033
  13 N :    0.456931
  14 H :   -0.098969
  15 H :   -0.069722
  16 N :    0.483218
  17 H :   -0.049320
  18 H :   -0.062157
  19 C :    0.103899
  20 H :   -0.048115
  21 H :   -0.031288
  22 C :   -0.261174
  23 C :   -0.648064
  24 O :   -0.005370
  25 O :   -0.084084
  26 O :    0.273441
  27 C :   -0.122724
  28 H :   -0.049046
  29 C :    0.033090
  30 H :   -0.037902
  31 C :   -0.048456
  32 C :    0.072001
  33 H :   -0.016666
  34 C :    0.018043
  35 H :   -0.043097
  36 C :   -0.142252
  37 H :   -0.043065
  38 O :    0.303526
  39 H :   -0.192881
  40 C :   -0.654957
  41 O :   -0.090013
  42 O :   -0.077981

  Mayer bond orders larger than 0.100000
B(  0-H ,  1-C ) :   0.9840 B(  1-C ,  2-H ) :   0.9793 B(  1-C ,  3-H ) :   0.9860
B(  1-C ,  4-C ) :   0.9501 B(  4-C ,  5-H ) :   0.9861 B(  4-C ,  6-H ) :   0.9729
B(  4-C ,  7-C ) :   0.9550 B(  7-C ,  8-H ) :   0.9419 B(  7-C ,  9-H ) :   0.9859
B(  7-C , 10-N ) :   0.9068 B( 10-N , 11-H ) :   0.9740 B( 10-N , 12-C ) :   1.3751
B( 12-C , 13-N ) :   1.3343 B( 12-C , 16-N ) :   1.3458 B( 13-N , 14-H ) :   0.8402
B( 13-N , 15-H ) :   0.9808 B( 14-H , 25-O ) :   0.1497 B( 16-N , 17-H ) :   0.9561
B( 16-N , 18-H ) :   0.9619 B( 19-C , 20-H ) :   0.9700 B( 19-C , 21-H ) :   0.9463
B( 19-C , 22-C ) :   1.8509 B( 22-C , 23-C ) :   0.8791 B( 22-C , 26-O ) :   0.9599
B( 23-C , 24-O ) :   1.9584 B( 23-C , 25-O ) :   1.5358 B( 26-O , 27-C ) :   0.8867
B( 27-C , 28-H ) :   1.0041 B( 27-C , 29-C ) :   0.9679 B( 27-C , 36-C ) :   0.9038
B( 29-C , 30-H ) :   0.9482 B( 29-C , 31-C ) :   1.8234 B( 31-C , 32-C ) :   1.0248
B( 31-C , 40-C ) :   0.8503 B( 31-C , 41-O ) :  -0.1232 B( 31-C , 42-O ) :  -0.1149
B( 32-C , 33-H ) :   0.9513 B( 32-C , 34-C ) :   1.8019 B( 34-C , 35-H ) :   0.9841
B( 34-C , 36-C ) :   0.9368 B( 36-C , 37-H ) :   0.9969 B( 36-C , 38-O ) :   0.9582
B( 38-O , 39-H ) :   1.0129 B( 40-C , 41-O ) :   1.8464 B( 40-C , 42-O ) :   1.8434

E(0)                                       ...  -1154.665321360
E(0)                                       ...  -1154.665321360
E(CORR)(strong-pairs)                      ...     -4.385431795
E(CORR)(weak-pairs)                        ...     -0.008163925
E(CORR)(corrected)                         ...     -4.393595720
E(TOT)                                     ...  -1159.058917080
E(CCSD(T))                                 ...  -1159.252366815
FINAL SINGLE POINT ENERGY     -1159.252366815209

DIPOLE MOMENT
-------------
                                X             Y             Z
Electronic contribution:     21.95755     -10.37092       0.33461
Nuclear contribution   :    -31.87353      13.99733       5.19914
                        -----------------------------------------
Total Dipole Moment    :     -9.91598       3.62642       5.53376
                        -----------------------------------------
Magnitude (a.u.)       :     11.92057
Magnitude (Debye)      :     30.29969

Rotational constants in cm-1:     0.015831     0.005012     0.004787
Rotational constants in MHz :   474.610894   150.242702   143.525207

                             ****ORCA TERMINATED NORMALLY****
TOTAL RUN TIME: 0 days 16 hours 20 minutes 12 seconds 627 msec
