                         Program Version 5.0.3 -  RELEASE  -
|  1> ! DLPNO-CCSD(T) cc-pVQZ cc-pVQZ/C TIGHTPNO TIGHTSCF
|  2> %maxcore 10000
|  3> %pal
|  4> nprocs 32
|  5> end
|  6> *xyz -1 1
|  7> H 4.322954811427 12.903581979119 8.265088616524
|  8> C 4.605095000000 11.906886000000 8.570693000000
|  9> H 5.190507000000 11.466800000000 7.755212000000
| 10> H 3.710039000000 11.287900000000 8.665492000000
| 11> C 5.380588000000 11.699238000000 9.854755000000
| 12> H 5.516676000000 10.620831000000 9.971529000000
| 13> H 4.775081000000 12.028266000000 10.704389000000
| 14> C 6.750721000000 12.355805000000 9.863295000000
| 15> H 6.712143000000 13.353176000000 10.302544000000
| 16> H 7.087132000000 12.482854000000 8.837069000000
| 17> N 7.801394000000 11.584780000000 10.503722000000
| 18> H 8.520358000000 11.224111000000 9.867439000000
| 19> C 8.105987000000 11.636393000000 11.782797000000
| 20> N 7.220458000000 12.116611000000 12.672554000000
| 21> H 6.242412000000 11.998926000000 12.485304000000
| 22> H 7.523348000000 12.086887000000 13.639547000000
| 23> N 9.292053000000 11.256909000000 12.216979000000
| 24> H 9.479849000000 11.335825000000 13.210993000000
| 25> H 9.990700000000 10.886266000000 11.583156000000
| 26> C 12.858063000000 10.838447000000 9.176954000000
| 27> H 13.539520000000 10.651479000000 9.991436000000
| 28> H 13.225067000000 11.327244000000 8.287276000000
| 29> C 11.579931000000 10.502996000000 9.255571000000
| 30> C 10.619130000000 10.894485000000 8.164412000000
| 31> O 11.075613000000 11.043303000000 7.004633000000
| 32> O 9.424143000000 11.083035000000 8.458443000000
| 33> O 11.032207000000 9.919997000000 10.363050000000
| 34> C 11.233455000000 8.483825000000 10.574462000000
| 35> H 10.764467000000 8.310230000000 11.540306000000
| 36> C 12.702308000000 8.239668000000 10.641575000000
| 37> H 13.232769000000 8.657130000000 11.485180000000
| 38> C 13.381706000000 7.692492000000 9.637747000000
| 39> C 12.654999000000 7.156452000000 8.483143000000
| 40> H 13.249903000000 6.754456000000 7.673199000000
| 41> C 11.325520000000 7.157111000000 8.425029000000
| 42> H 10.814299000000 6.743059000000 7.564186000000
| 43> C 10.455286000000 7.670831000000 9.530873000000
| 44> H 9.714263000000 8.357990000000 9.110074000000
| 45> O 9.794085000000 6.569231000000 10.104579000000
| 46> H 9.037608000000 6.890131000000 10.693839000000
| 47> C 14.898536000000 7.779900000000 9.575956000000
| 48> O 15.512356000000 8.187599000000 10.600813000000
| 49> O 15.431911000000 7.503926000000 8.492276000000
| 50> *
| 51>
| 52>                          ****END OF INPUT****

CARTESIAN COORDINATES (ANGSTROEM)
---------------------------------
  H      4.322955   12.903582    8.265089
  C      4.605095   11.906886    8.570693
  H      5.190507   11.466800    7.755212
  H      3.710039   11.287900    8.665492
  C      5.380588   11.699238    9.854755
  H      5.516676   10.620831    9.971529
  H      4.775081   12.028266   10.704389
  C      6.750721   12.355805    9.863295
  H      6.712143   13.353176   10.302544
  H      7.087132   12.482854    8.837069
  N      7.801394   11.584780   10.503722
  H      8.520358   11.224111    9.867439
  C      8.105987   11.636393   11.782797
  N      7.220458   12.116611   12.672554
  H      6.242412   11.998926   12.485304
  H      7.523348   12.086887   13.639547
  N      9.292053   11.256909   12.216979
  H      9.479849   11.335825   13.210993
  H      9.990700   10.886266   11.583156
  C     12.858063   10.838447    9.176954
  H     13.539520   10.651479    9.991436
  H     13.225067   11.327244    8.287276
  C     11.579931   10.502996    9.255571
  C     10.619130   10.894485    8.164412
  O     11.075613   11.043303    7.004633
  O      9.424143   11.083035    8.458443
  O     11.032207    9.919997   10.363050
  C     11.233455    8.483825   10.574462
  H     10.764467    8.310230   11.540306
  C     12.702308    8.239668   10.641575
  H     13.232769    8.657130   11.485180
  C     13.381706    7.692492    9.637747
  C     12.654999    7.156452    8.483143
  H     13.249903    6.754456    7.673199
  C     11.325520    7.157111    8.425029
  H     10.814299    6.743059    7.564186
  C     10.455286    7.670831    9.530873
  H      9.714263    8.357990    9.110074
  O      9.794085    6.569231   10.104579
  H      9.037608    6.890131   10.693839
  C     14.898536    7.779900    9.575956
  O     15.512356    8.187599   10.600813
  O     15.431911    7.503926    8.492276

 Total Charge           Charge          ....   -1
 Multiplicity           Mult            ....    1
 Number of Electrons    NEL             ....  174
 Basis Dimension        Dim             .... 1865

ORBITAL ENERGIES
----------------

  NO   OCC          E(Eh)            E(eV)
   0   2.0000     -20.463974      -556.8530
   1   2.0000     -20.462747      -556.8196
   2   2.0000     -20.356247      -553.9216
   3   2.0000     -20.325896      -553.0957
   4   2.0000     -20.296693      -552.3011
   5   2.0000     -20.287643      -552.0548
   6   2.0000     -15.585737      -424.1095
   7   2.0000     -15.560628      -423.4262
   8   2.0000     -15.537388      -422.7938
   9   2.0000     -11.364660      -309.2481
  10   2.0000     -11.221245      -305.3456
  11   2.0000     -11.190489      -304.5087
  12   2.0000     -11.184536      -304.3467
  13   2.0000     -11.181475      -304.2634
  14   2.0000     -11.174765      -304.0808
  15   2.0000     -11.170521      -303.9653
  16   2.0000     -11.146053      -303.2995
  17   2.0000     -11.142039      -303.1903
  18   2.0000     -11.093940      -301.8815
  19   2.0000     -11.091941      -301.8271
  20   2.0000     -11.087674      -301.7109
  21   2.0000     -11.086347      -301.6748
  22   2.0000     -11.085028      -301.6389
  23   2.0000      -1.328815       -36.1589
  24   2.0000      -1.291356       -35.1396
  25   2.0000      -1.260135       -34.2900
  26   2.0000      -1.232773       -33.5454
  27   2.0000      -1.187499       -32.3135
  28   2.0000      -1.181971       -32.1631
  29   2.0000      -1.178916       -32.0799
  30   2.0000      -1.117920       -30.4202
  31   2.0000      -1.070574       -29.1318
  32   2.0000      -1.026146       -27.9229
  33   2.0000      -0.996547       -27.1174
  34   2.0000      -0.919434       -25.0191
  35   2.0000      -0.910789       -24.7838
  36   2.0000      -0.886162       -24.1137
  37   2.0000      -0.861747       -23.4493
  38   2.0000      -0.828951       -22.5569
  39   2.0000      -0.788861       -21.4660
  40   2.0000      -0.758229       -20.6325
  41   2.0000      -0.747219       -20.3329
  42   2.0000      -0.720579       -19.6080
  43   2.0000      -0.699677       -19.0392
  44   2.0000      -0.695978       -18.9385
  45   2.0000      -0.662578       -18.0297
  46   2.0000      -0.646590       -17.5946
  47   2.0000      -0.616771       -16.7832
  48   2.0000      -0.609582       -16.5876
  49   2.0000      -0.599831       -16.3222
  50   2.0000      -0.595699       -16.2098
  51   2.0000      -0.581381       -15.8202
  52   2.0000      -0.567887       -15.4530
  53   2.0000      -0.559007       -15.2114
  54   2.0000      -0.545037       -14.8312
  55   2.0000      -0.542643       -14.7661
  56   2.0000      -0.525334       -14.2951
  57   2.0000      -0.513816       -13.9817
  58   2.0000      -0.498326       -13.5601
  59   2.0000      -0.491072       -13.3627
  60   2.0000      -0.476403       -12.9636
  61   2.0000      -0.472681       -12.8623
  62   2.0000      -0.462600       -12.5880
  63   2.0000      -0.461048       -12.5458
  64   2.0000      -0.447119       -12.1667
  65   2.0000      -0.442175       -12.0322
  66   2.0000      -0.439213       -11.9516
  67   2.0000      -0.436197       -11.8695
  68   2.0000      -0.423652       -11.5281
  69   2.0000      -0.419457       -11.4140
  70   2.0000      -0.414577       -11.2812
  71   2.0000      -0.406081       -11.0500
  72   2.0000      -0.389160       -10.5896
  73   2.0000      -0.379528       -10.3275
  74   2.0000      -0.372319       -10.1313
  75   2.0000      -0.360827        -9.8186
  76   2.0000      -0.350416        -9.5353
  77   2.0000      -0.318609        -8.6698
  78   2.0000      -0.289562        -7.8794
  79   2.0000      -0.278252        -7.5716
  80   2.0000      -0.258338        -7.0297
  81   2.0000      -0.249050        -6.7770
  82   2.0000      -0.222014        -6.0413
  83   2.0000      -0.217870        -5.9285
  84   2.0000      -0.212424        -5.7804
  85   2.0000      -0.198886        -5.4120
  86   2.0000      -0.180591        -4.9141
  87   0.0000       0.114877         3.1260
  88   0.0000       0.143204         3.8968
  89   0.0000       0.166593         4.5332
  90   0.0000       0.171784         4.6745
  91   0.0000       0.187319         5.0972

MULLIKEN ATOMIC CHARGES
-----------------------
   0 H :    0.073087
   1 C :   -0.211499
   2 H :    0.092785
   3 H :    0.069278
   4 C :   -0.142033
   5 H :    0.092977
   6 H :    0.029768
   7 C :   -0.021287
   8 H :    0.071971
   9 H :    0.157547
  10 N :   -0.359456
  11 H :    0.303882
  12 C :    0.601097
  13 N :   -0.425414
  14 H :    0.219079
  15 H :    0.185281
  16 N :   -0.424111
  17 H :    0.177427
  18 H :    0.318440
  19 C :   -0.233914
  20 H :    0.156924
  21 H :    0.166967
  22 C :    0.054116
  23 C :    0.633451
  24 O :   -0.648345
  25 O :   -0.702128
  26 O :   -0.545274
  27 C :    0.165612
  28 H :    0.071519
  29 C :   -0.134265
  30 H :    0.148509
  31 C :   -0.240635
  32 C :   -0.148853
  33 H :    0.199375
  34 C :   -0.153407
  35 H :    0.131887
  36 C :    0.206573
  37 H :    0.043328
  38 O :   -0.497753
  39 H :    0.225843
  40 C :    0.679533
  41 O :   -0.718268
  42 O :   -0.669613
Sum of atomic charges:   -1.0000000

LOEWDIN ATOMIC CHARGES
----------------------
   0 H :   -0.103259
   1 C :    0.315840
   2 H :   -0.073681
   3 H :   -0.088705
   4 C :    0.129885
   5 H :   -0.073549
   6 H :   -0.099756
   7 C :    0.085357
   8 H :   -0.088491
   9 H :   -0.060385
  10 N :    0.697747
  11 H :   -0.327329
  12 C :   -0.519919
  13 N :    0.805066
  14 H :   -0.208906
  15 H :   -0.197512
  16 N :    0.839555
  17 H :   -0.194176
  18 H :   -0.248337
  19 C :    0.284608
  20 H :   -0.111570
  21 H :   -0.101510
  22 C :   -0.434616
  23 C :   -1.102371
  24 O :    0.181981
  25 O :    0.275304
  26 O :    0.590336
  27 C :   -0.184971
  28 H :   -0.100353
  29 C :    0.114300
  30 H :   -0.102892
  31 C :   -0.091914
  32 C :    0.119268
  33 H :   -0.085394
  34 C :    0.103268
  35 H :   -0.108132
  36 C :   -0.264144
  37 H :   -0.086853
  38 O :    0.660571
  39 H :   -0.355215
  40 C :   -1.103105
  41 O :    0.125463
  42 O :    0.188495

  Mayer bond orders larger than 0.100000
B(  0-H ,  1-C ) :   0.9912 B(  1-C ,  2-H ) :   0.9889 B(  1-C ,  3-H ) :   0.9922
B(  1-C ,  4-C ) :   0.9674 B(  4-C ,  5-H ) :   0.9739 B(  4-C ,  6-H ) :   0.9899
B(  4-C ,  7-C ) :   0.9539 B(  7-C ,  8-H ) :   0.9881 B(  7-C ,  9-H ) :   0.9625
B(  7-C , 10-N ) :   0.9180 B( 10-N , 11-H ) :   0.7743 B( 10-N , 12-C ) :   1.4774
B( 11-H , 25-O ) :   0.2092 B( 12-C , 13-N ) :   1.2053 B( 12-C , 16-N ) :   1.3797
B( 13-N , 14-H ) :   0.9585 B( 13-N , 15-H ) :   0.9851 B( 16-N , 17-H ) :   0.9856
B( 16-N , 18-H ) :   0.8368 B( 19-C , 20-H ) :   0.9905 B( 19-C , 21-H ) :   0.9498
B( 19-C , 22-C ) :   1.8784 B( 22-C , 23-C ) :   0.8697 B( 22-C , 26-O ) :   0.8100
B( 23-C , 24-O ) :   1.8777 B( 23-C , 25-O ) :   1.5283 B( 26-O , 27-C ) :   0.7901
B( 27-C , 28-H ) :   1.0084 B( 27-C , 29-C ) :   0.9619 B( 27-C , 36-C ) :   0.9040
B( 29-C , 30-H ) :   0.9292 B( 29-C , 31-C ) :   1.8076 B( 31-C , 32-C ) :   1.0200
B( 31-C , 40-C ) :   0.8283 B( 31-C , 41-O ) :  -0.1477 B( 31-C , 42-O ) :  -0.1432
B( 32-C , 33-H ) :   0.9374 B( 32-C , 34-C ) :   1.7971 B( 34-C , 35-H ) :   0.9836
B( 34-C , 36-C ) :   0.9608 B( 36-C , 37-H ) :   1.0209 B( 36-C , 38-O ) :   0.9821
B( 38-O , 39-H ) :   0.9853 B( 40-C , 41-O ) :   1.7706 B( 40-C , 42-O ) :   1.8145

E(0)                                       ...  -1154.770671917
E(0)                                       ...  -1154.770671917
E(CORR)(strong-pairs)                      ...     -4.634893904
E(CORR)(weak-pairs)                        ...     -0.012116849
E(CORR)(corrected)                         ...     -4.647010753
E(TOT)                                     ...  -1159.417682670
E(CCSD(T))                                 ...  -1159.629666796
FINAL SINGLE POINT ENERGY     -1159.629666796470

DIPOLE MOMENT
-------------
                                X             Y             Z
Electronic contribution:     24.39527      -9.69440      -0.35149
Nuclear contribution   :    -35.21142      13.59272       6.11691
                        -----------------------------------------
Total Dipole Moment    :    -10.81615       3.89832       5.76542
                        -----------------------------------------
Magnitude (a.u.)       :     12.86181
Magnitude (Debye)      :     32.69212

Rotational constants in cm-1:     0.015403     0.004090     0.003991
Rotational constants in MHz :   461.783458   122.604014   119.647687

                             ****ORCA TERMINATED NORMALLY****
TOTAL RUN TIME: 0 days 11 hours 19 minutes 22 seconds 578 msec
