                         Program Version 5.0.3 -  RELEASE  -
|  1> ! DLPNO-CCSD(T) cc-pVTZ cc-pVTZ/C TIGHTPNO TIGHTSCF
|  2> %maxcore 10000
|  3> %pal
|  4> nprocs 16
|  5> end
|  6> *xyz -1 1
|  7> H 4.322954811427 12.903581979119 8.265088616524
|  8> C 4.605095000000 11.906886000000 8.570693000000
|  9> H 5.190507000000 11.466800000000 7.755212000000
| 10> H 3.710039000000 11.287900000000 8.665492000000
| 11> C 5.380588000000 11.699238000000 9.854755000000
| 12> H 5.516676000000 10.620831000000 9.971529000000
| 13> H 4.775081000000 12.028266000000 10.704389000000
| 14> C 6.750721000000 12.355805000000 9.863295000000
| 15> H 6.712143000000 13.353176000000 10.302544000000
| 16> H 7.087132000000 12.482854000000 8.837069000000
| 17> N 7.801394000000 11.584780000000 10.503722000000
| 18> H 8.520358000000 11.224111000000 9.867439000000
| 19> C 8.105987000000 11.636393000000 11.782797000000
| 20> N 7.220458000000 12.116611000000 12.672554000000
| 21> H 6.242412000000 11.998926000000 12.485304000000
| 22> H 7.523348000000 12.086887000000 13.639547000000
| 23> N 9.292053000000 11.256909000000 12.216979000000
| 24> H 9.479849000000 11.335825000000 13.210993000000
| 25> H 9.990700000000 10.886266000000 11.583156000000
| 26> C 12.858063000000 10.838447000000 9.176954000000
| 27> H 13.539520000000 10.651479000000 9.991436000000
| 28> H 13.225067000000 11.327244000000 8.287276000000
| 29> C 11.579931000000 10.502996000000 9.255571000000
| 30> C 10.619130000000 10.894485000000 8.164412000000
| 31> O 11.075613000000 11.043303000000 7.004633000000
| 32> O 9.424143000000 11.083035000000 8.458443000000
| 33> O 11.032207000000 9.919997000000 10.363050000000
| 34> C 11.233455000000 8.483825000000 10.574462000000
| 35> H 10.764467000000 8.310230000000 11.540306000000
| 36> C 12.702308000000 8.239668000000 10.641575000000
| 37> H 13.232769000000 8.657130000000 11.485180000000
| 38> C 13.381706000000 7.692492000000 9.637747000000
| 39> C 12.654999000000 7.156452000000 8.483143000000
| 40> H 13.249903000000 6.754456000000 7.673199000000
| 41> C 11.325520000000 7.157111000000 8.425029000000
| 42> H 10.814299000000 6.743059000000 7.564186000000
| 43> C 10.455286000000 7.670831000000 9.530873000000
| 44> H 9.714263000000 8.357990000000 9.110074000000
| 45> O 9.794085000000 6.569231000000 10.104579000000
| 46> H 9.037608000000 6.890131000000 10.693839000000
| 47> C 14.898536000000 7.779900000000 9.575956000000
| 48> O 15.512356000000 8.187599000000 10.600813000000
| 49> O 15.431911000000 7.503926000000 8.492276000000
| 50> *
| 51>
| 52>                          ****END OF INPUT****

CARTESIAN COORDINATES (ANGSTROEM)
---------------------------------
  H      4.322955   12.903582    8.265089
  C      4.605095   11.906886    8.570693
  H      5.190507   11.466800    7.755212
  H      3.710039   11.287900    8.665492
  C      5.380588   11.699238    9.854755
  H      5.516676   10.620831    9.971529
  H      4.775081   12.028266   10.704389
  C      6.750721   12.355805    9.863295
  H      6.712143   13.353176   10.302544
  H      7.087132   12.482854    8.837069
  N      7.801394   11.584780   10.503722
  H      8.520358   11.224111    9.867439
  C      8.105987   11.636393   11.782797
  N      7.220458   12.116611   12.672554
  H      6.242412   11.998926   12.485304
  H      7.523348   12.086887   13.639547
  N      9.292053   11.256909   12.216979
  H      9.479849   11.335825   13.210993
  H      9.990700   10.886266   11.583156
  C     12.858063   10.838447    9.176954
  H     13.539520   10.651479    9.991436
  H     13.225067   11.327244    8.287276
  C     11.579931   10.502996    9.255571
  C     10.619130   10.894485    8.164412
  O     11.075613   11.043303    7.004633
  O      9.424143   11.083035    8.458443
  O     11.032207    9.919997   10.363050
  C     11.233455    8.483825   10.574462
  H     10.764467    8.310230   11.540306
  C     12.702308    8.239668   10.641575
  H     13.232769    8.657130   11.485180
  C     13.381706    7.692492    9.637747
  C     12.654999    7.156452    8.483143
  H     13.249903    6.754456    7.673199
  C     11.325520    7.157111    8.425029
  H     10.814299    6.743059    7.564186
  C     10.455286    7.670831    9.530873
  H      9.714263    8.357990    9.110074
  O      9.794085    6.569231   10.104579
  H      9.037608    6.890131   10.693839
  C     14.898536    7.779900    9.575956
  O     15.512356    8.187599   10.600813
  O     15.431911    7.503926    8.492276

 Total Charge           Charge          ....   -1
 Multiplicity           Mult            ....    1
 Number of Electrons    NEL             ....  174
 Basis Dimension        Dim             ....  970

ORBITAL ENERGIES
----------------

  NO   OCC          E(Eh)            E(eV)
   0   2.0000     -20.462538      -556.8140
   1   2.0000     -20.461447      -556.7843
   2   2.0000     -20.352859      -553.8294
   3   2.0000     -20.321448      -552.9747
   4   2.0000     -20.291396      -552.1570
   5   2.0000     -20.281932      -551.8994
   6   2.0000     -15.585994      -424.1165
   7   2.0000     -15.560848      -423.4322
   8   2.0000     -15.537675      -422.8016
   9   2.0000     -11.364558      -309.2453
  10   2.0000     -11.221427      -305.3505
  11   2.0000     -11.191010      -304.5229
  12   2.0000     -11.180716      -304.2427
  13   2.0000     -11.179802      -304.2179
  14   2.0000     -11.175332      -304.0962
  15   2.0000     -11.168759      -303.9174
  16   2.0000     -11.143876      -303.2403
  17   2.0000     -11.137271      -303.0606
  18   2.0000     -11.092334      -301.8377
  19   2.0000     -11.090419      -301.7856
  20   2.0000     -11.085349      -301.6477
  21   2.0000     -11.084096      -301.6136
  22   2.0000     -11.082701      -301.5756
  23   2.0000      -1.328095       -36.1393
  24   2.0000      -1.289051       -35.0769
  25   2.0000      -1.257313       -34.2132
  26   2.0000      -1.228639       -33.4330
  27   2.0000      -1.186668       -32.2909
  28   2.0000      -1.178166       -32.0595
  29   2.0000      -1.176653       -32.0184
  30   2.0000      -1.113522       -30.3005
  31   2.0000      -1.065201       -28.9856
  32   2.0000      -1.025773       -27.9127
  33   2.0000      -0.993921       -27.0460
  34   2.0000      -0.916715       -24.9451
  35   2.0000      -0.910153       -24.7665
  36   2.0000      -0.883469       -24.0404
  37   2.0000      -0.859084       -23.3769
  38   2.0000      -0.828025       -22.5317
  39   2.0000      -0.788117       -21.4458
  40   2.0000      -0.757100       -20.6017
  41   2.0000      -0.744422       -20.2568
  42   2.0000      -0.719557       -19.5802
  43   2.0000      -0.696711       -18.9585
  44   2.0000      -0.692872       -18.8540
  45   2.0000      -0.661387       -17.9972
  46   2.0000      -0.645217       -17.5572
  47   2.0000      -0.614352       -16.7174
  48   2.0000      -0.607698       -16.5363
  49   2.0000      -0.598629       -16.2895
  50   2.0000      -0.592472       -16.1220
  51   2.0000      -0.580457       -15.7951
  52   2.0000      -0.564747       -15.3675
  53   2.0000      -0.555981       -15.1290
  54   2.0000      -0.543105       -14.7786
  55   2.0000      -0.540915       -14.7190
  56   2.0000      -0.522113       -14.2074
  57   2.0000      -0.510859       -13.9012
  58   2.0000      -0.496389       -13.5074
  59   2.0000      -0.488190       -13.2843
  60   2.0000      -0.472900       -12.8683
  61   2.0000      -0.471834       -12.8392
  62   2.0000      -0.461762       -12.5652
  63   2.0000      -0.457576       -12.4513
  64   2.0000      -0.443802       -12.0765
  65   2.0000      -0.438604       -11.9350
  66   2.0000      -0.437917       -11.9163
  67   2.0000      -0.432408       -11.7664
  68   2.0000      -0.421990       -11.4829
  69   2.0000      -0.416855       -11.3432
  70   2.0000      -0.410673       -11.1750
  71   2.0000      -0.401663       -10.9298
  72   2.0000      -0.384986       -10.4760
  73   2.0000      -0.375562       -10.2195
  74   2.0000      -0.368479       -10.0268
  75   2.0000      -0.359480        -9.7820
  76   2.0000      -0.347325        -9.4512
  77   2.0000      -0.315441        -8.5836
  78   2.0000      -0.286253        -7.7893
  79   2.0000      -0.273668        -7.4469
  80   2.0000      -0.253845        -6.9075
  81   2.0000      -0.244166        -6.6441
  82   2.0000      -0.216593        -5.8938
  83   2.0000      -0.214410        -5.8344
  84   2.0000      -0.206370        -5.6156
  85   2.0000      -0.193457        -5.2642
  86   2.0000      -0.177470        -4.8292
  87   0.0000       0.137379         3.7383
  88   0.0000       0.167359         4.5541
  89   0.0000       0.194636         5.2963
  90   0.0000       0.204545         5.5659
  91   0.0000       0.214913         5.8481

MULLIKEN ATOMIC CHARGES
-----------------------
   0 H :    0.101540
   1 C :   -0.303328
   2 H :    0.118712
   3 H :    0.089583
   4 C :   -0.171553
   5 H :    0.111779
   6 H :    0.061357
   7 C :   -0.104332
   8 H :    0.106602
   9 H :    0.154613
  10 N :   -0.196023
  11 H :    0.268250
  12 C :    0.316653
  13 N :   -0.291421
  14 H :    0.208611
  15 H :    0.174516
  16 N :   -0.289294
  17 H :    0.167347
  18 H :    0.298202
  19 C :   -0.356325
  20 H :    0.175446
  21 H :    0.169454
  22 C :    0.136602
  23 C :    0.393272
  24 O :   -0.556766
  25 O :   -0.603272
  26 O :   -0.466868
  27 C :    0.148401
  28 H :    0.065878
  29 C :   -0.259814
  30 H :    0.163041
  31 C :    0.005628
  32 C :   -0.150915
  33 H :    0.176206
  34 C :   -0.183872
  35 H :    0.123608
  36 C :    0.140804
  37 H :    0.082366
  38 O :   -0.432065
  39 H :    0.204873
  40 C :    0.386645
  41 O :   -0.616643
  42 O :   -0.567496
Sum of atomic charges:   -1.0000000

LOEWDIN ATOMIC CHARGES
----------------------
   0 H :   -0.037621
   1 C :    0.113874
   2 H :   -0.013116
   3 H :   -0.026572
   4 C :    0.031062
   5 H :   -0.018052
   6 H :   -0.042547
   7 C :    0.028948
   8 H :   -0.031648
   9 H :   -0.001983
  10 N :    0.446112
  11 H :   -0.154779
  12 C :   -0.280445
  13 N :    0.447489
  14 H :   -0.070120
  15 H :   -0.063910
  16 N :    0.491125
  17 H :   -0.062184
  18 H :   -0.096712
  19 C :    0.123349
  20 H :   -0.040009
  21 H :   -0.029847
  22 C :   -0.271431
  23 C :   -0.654351
  24 O :   -0.055083
  25 O :    0.000557
  26 O :    0.308267
  27 C :   -0.100492
  28 H :   -0.041779
  29 C :    0.036077
  30 H :   -0.038244
  31 C :   -0.053637
  32 C :    0.059674
  33 H :   -0.020171
  34 C :    0.020580
  35 H :   -0.041428
  36 C :   -0.149466
  37 H :   -0.032368
  38 O :    0.289701
  39 H :   -0.145384
  40 C :   -0.657736
  41 O :   -0.114284
  42 O :   -0.051413

  Mayer bond orders larger than 0.100000
B(  0-H ,  1-C ) :   0.9792 B(  1-C ,  2-H ) :   0.9808 B(  1-C ,  3-H ) :   0.9858
B(  1-C ,  4-C ) :   0.9631 B(  4-C ,  5-H ) :   0.9752 B(  4-C ,  6-H ) :   0.9823
B(  4-C ,  7-C ) :   0.9284 B(  7-C ,  8-H ) :   0.9842 B(  7-C ,  9-H ) :   0.9708
B(  7-C , 10-N ) :   0.9284 B( 10-N , 11-H ) :   0.8063 B( 10-N , 12-C ) :   1.4822
B( 11-H , 25-O ) :   0.1970 B( 12-C , 13-N ) :   1.2232 B( 12-C , 16-N ) :   1.4047
B( 13-N , 14-H ) :   0.9527 B( 13-N , 15-H ) :   0.9718 B( 16-N , 17-H ) :   0.9724
B( 16-N , 18-H ) :   0.8482 B( 19-C , 20-H ) :   0.9578 B( 19-C , 21-H ) :   0.9451
B( 19-C , 22-C ) :   1.8355 B( 22-C , 23-C ) :   0.8928 B( 22-C , 26-O ) :   0.9025
B( 23-C , 24-O ) :   1.9298 B( 23-C , 25-O ) :   1.5631 B( 26-O , 27-C ) :   0.8566
B( 27-C , 28-H ) :   1.0134 B( 27-C , 29-C ) :   0.9600 B( 27-C , 36-C ) :   0.9115
B( 29-C , 30-H ) :   0.9386 B( 29-C , 31-C ) :   1.8099 B( 31-C , 32-C ) :   1.0227
B( 31-C , 40-C ) :   0.8689 B( 31-C , 41-O ) :  -0.1414 B( 31-C , 42-O ) :  -0.1308
B( 32-C , 33-H ) :   0.9491 B( 32-C , 34-C ) :   1.7964 B( 34-C , 35-H ) :   0.9830
B( 34-C , 36-C ) :   0.9480 B( 36-C , 37-H ) :   1.0069 B( 36-C , 38-O ) :   0.9900
B( 38-O , 39-H ) :   0.9909 B( 40-C , 41-O ) :   1.8294 B( 40-C , 42-O ) :   1.8793

E(0)                                       ...  -1154.685985236
E(0)                                       ...  -1154.685985236
E(CORR)(strong-pairs)                      ...     -4.380806290
E(CORR)(weak-pairs)                        ...     -0.007856313
E(CORR)(corrected)                         ...     -4.388662603
E(TOT)                                     ...  -1159.074647839
E(CCSD(T))                                 ...  -1159.267056804
FINAL SINGLE POINT ENERGY     -1159.267056803536

DIPOLE MOMENT
-------------
                                X             Y             Z
Electronic contribution:     24.41873      -9.69854      -0.33460
Nuclear contribution   :    -35.21142      13.59272       6.11691
                        -----------------------------------------
Total Dipole Moment    :    -10.79269       3.89419       5.78231
                        -----------------------------------------
Magnitude (a.u.)       :     12.84842
Magnitude (Debye)      :     32.65809

Rotational constants in cm-1:     0.015403     0.004090     0.003991
Rotational constants in MHz :   461.783458   122.604014   119.647687

                             ****ORCA TERMINATED NORMALLY****
TOTAL RUN TIME: 0 days 2 hours 46 minutes 35 seconds 204 msec
