                         Program Version 5.0.3 -  RELEASE  -
|  1> ! DLPNO-CCSD(T) cc-pVQZ cc-pVQZ/C TIGHTPNO TIGHTSCF
|  2> %maxcore 10000
|  3> %pal
|  4> nprocs 32
|  5> end
|  6> *xyz -1 1
|  7> H 4.321657106426 12.904823268615 8.261179110699
|  8> C 4.604406000000 11.906827000000 8.561939000000
|  9> H 5.197136000000 11.475461000000 7.746673000000
| 10> H 3.713794000000 11.280439000000 8.649609000000
| 11> C 5.378539000000 11.707879000000 9.846316000000
| 12> H 5.564943000000 10.635537000000 9.947302000000
| 13> H 4.754343000000 12.000417000000 10.695735000000
| 14> C 6.711912000000 12.433351000000 9.859827000000
| 15> H 6.619630000000 13.426886000000 10.300916000000
| 16> H 7.036614000000 12.580843000000 8.833027000000
| 17> N 7.802765000000 11.718940000000 10.492557000000
| 18> H 8.571154000000 11.448523000000 9.867233000000
| 19> C 8.071554000000 11.734272000000 11.780732000000
| 20> N 7.131367000000 12.105429000000 12.670754000000
| 21> H 6.170464000000 11.917086000000 12.451859000000
| 22> H 7.405730000000 12.024893000000 13.641433000000
| 23> N 9.274557000000 11.424479000000 12.217315000000
| 24> H 9.450486000000 11.486609000000 13.215962000000
| 25> H 10.001787000000 11.120928000000 11.578942000000
| 26> C 12.971417000000 10.689934000000 9.230108000000
| 27> H 13.604641000000 10.549593000000 10.090673000000
| 28> H 13.456783000000 10.963405000000 8.304137000000
| 29> C 11.651348000000 10.550141000000 9.326738000000
| 30> C 10.715199000000 10.991277000000 8.218973000000
| 31> O 11.137295000000 11.036634000000 7.037544000000
| 32> O 9.555471000000 11.334453000000 8.525229000000
| 33> O 11.056414000000 10.049825000000 10.453572000000
| 34> C 11.146839000000 8.507527000000 10.687662000000
| 35> H 10.637054000000 8.380074000000 11.643185000000
| 36> C 12.593527000000 8.261983000000 10.754363000000
| 37> H 13.108425000000 8.581130000000 11.645500000000
| 38> C 13.272808000000 7.930575000000 9.658798000000
| 39> C 12.565919000000 7.450986000000 8.473453000000
| 40> H 13.176291000000 7.148356000000 7.632545000000
| 41> C 11.246913000000 7.299333000000 8.464976000000
| 42> H 10.753447000000 6.792085000000 7.644601000000
| 43> C 10.373816000000 7.751567000000 9.590267000000
| 44> H 9.677753000000 8.501328000000 9.208982000000
| 45> O 9.661367000000 6.628879000000 10.046475000000
| 46> H 8.899781000000 6.924841000000 10.646529000000
| 47> C 14.783568000000 8.003028000000 9.611897000000
| 48> O 15.393183000000 8.193904000000 10.696393000000
| 49> O 15.323615000000 7.888607000000 8.503205000000
| 50> *
| 51>
| 52>                          ****END OF INPUT****

CARTESIAN COORDINATES (ANGSTROEM)
---------------------------------
  H      4.321657   12.904823    8.261179
  C      4.604406   11.906827    8.561939
  H      5.197136   11.475461    7.746673
  H      3.713794   11.280439    8.649609
  C      5.378539   11.707879    9.846316
  H      5.564943   10.635537    9.947302
  H      4.754343   12.000417   10.695735
  C      6.711912   12.433351    9.859827
  H      6.619630   13.426886   10.300916
  H      7.036614   12.580843    8.833027
  N      7.802765   11.718940   10.492557
  H      8.571154   11.448523    9.867233
  C      8.071554   11.734272   11.780732
  N      7.131367   12.105429   12.670754
  H      6.170464   11.917086   12.451859
  H      7.405730   12.024893   13.641433
  N      9.274557   11.424479   12.217315
  H      9.450486   11.486609   13.215962
  H     10.001787   11.120928   11.578942
  C     12.971417   10.689934    9.230108
  H     13.604641   10.549593   10.090673
  H     13.456783   10.963405    8.304137
  C     11.651348   10.550141    9.326738
  C     10.715199   10.991277    8.218973
  O     11.137295   11.036634    7.037544
  O      9.555471   11.334453    8.525229
  O     11.056414   10.049825   10.453572
  C     11.146839    8.507527   10.687662
  H     10.637054    8.380074   11.643185
  C     12.593527    8.261983   10.754363
  H     13.108425    8.581130   11.645500
  C     13.272808    7.930575    9.658798
  C     12.565919    7.450986    8.473453
  H     13.176291    7.148356    7.632545
  C     11.246913    7.299333    8.464976
  H     10.753447    6.792085    7.644601
  C     10.373816    7.751567    9.590267
  H      9.677753    8.501328    9.208982
  O      9.661367    6.628879   10.046475
  H      8.899781    6.924841   10.646529
  C     14.783568    8.003028    9.611897
  O     15.393183    8.193904   10.696393
  O     15.323615    7.888607    8.503205

 Total Charge           Charge          ....   -1
 Multiplicity           Mult            ....    1
 Number of Electrons    NEL             ....  174
 Basis Dimension        Dim             .... 1865

ORBITAL ENERGIES
----------------

  NO   OCC          E(Eh)            E(eV)
   0   2.0000     -20.470131      -557.0206
   1   2.0000     -20.454633      -556.5989
   2   2.0000     -20.350277      -553.7592
   3   2.0000     -20.320498      -552.9489
   4   2.0000     -20.298179      -552.3415
   5   2.0000     -20.289518      -552.1059
   6   2.0000     -15.583453      -424.0473
   7   2.0000     -15.556868      -423.3239
   8   2.0000     -15.533635      -422.6917
   9   2.0000     -11.361432      -309.1603
  10   2.0000     -11.219869      -305.3082
  11   2.0000     -11.189778      -304.4893
  12   2.0000     -11.188380      -304.4513
  13   2.0000     -11.180007      -304.2235
  14   2.0000     -11.175707      -304.1065
  15   2.0000     -11.174459      -304.0725
  16   2.0000     -11.142012      -303.1896
  17   2.0000     -11.139656      -303.1255
  18   2.0000     -11.093809      -301.8779
  19   2.0000     -11.091584      -301.8173
  20   2.0000     -11.090183      -301.7792
  21   2.0000     -11.081961      -301.5555
  22   2.0000     -11.080789      -301.5236
  23   2.0000      -1.325681       -36.0736
  24   2.0000      -1.269820       -34.5536
  25   2.0000      -1.259445       -34.2712
  26   2.0000      -1.224095       -33.3093
  27   2.0000      -1.185288       -32.2533
  28   2.0000      -1.185221       -32.2515
  29   2.0000      -1.175784       -31.9947
  30   2.0000      -1.109973       -30.2039
  31   2.0000      -1.073815       -29.2200
  32   2.0000      -1.026254       -27.9258
  33   2.0000      -1.001554       -27.2537
  34   2.0000      -0.909572       -24.7507
  35   2.0000      -0.908505       -24.7217
  36   2.0000      -0.890045       -24.2194
  37   2.0000      -0.859943       -23.4003
  38   2.0000      -0.826184       -22.4816
  39   2.0000      -0.788036       -21.4435
  40   2.0000      -0.754015       -20.5178
  41   2.0000      -0.741188       -20.1687
  42   2.0000      -0.717532       -19.5250
  43   2.0000      -0.700913       -19.0728
  44   2.0000      -0.693120       -18.8607
  45   2.0000      -0.658132       -17.9087
  46   2.0000      -0.641967       -17.4688
  47   2.0000      -0.614259       -16.7148
  48   2.0000      -0.607006       -16.5175
  49   2.0000      -0.598484       -16.2856
  50   2.0000      -0.597629       -16.2623
  51   2.0000      -0.579702       -15.7745
  52   2.0000      -0.563035       -15.3210
  53   2.0000      -0.559385       -15.2217
  54   2.0000      -0.542265       -14.7558
  55   2.0000      -0.533464       -14.5163
  56   2.0000      -0.520536       -14.1645
  57   2.0000      -0.504333       -13.7236
  58   2.0000      -0.492648       -13.4056
  59   2.0000      -0.486644       -13.2423
  60   2.0000      -0.478675       -13.0254
  61   2.0000      -0.471353       -12.8262
  62   2.0000      -0.464517       -12.6401
  63   2.0000      -0.462646       -12.5892
  64   2.0000      -0.448870       -12.2144
  65   2.0000      -0.439115       -11.9489
  66   2.0000      -0.437370       -11.9015
  67   2.0000      -0.434322       -11.8185
  68   2.0000      -0.421410       -11.4671
  69   2.0000      -0.418146       -11.3783
  70   2.0000      -0.412802       -11.2329
  71   2.0000      -0.403881       -10.9902
  72   2.0000      -0.390341       -10.6217
  73   2.0000      -0.381042       -10.3687
  74   2.0000      -0.369478       -10.0540
  75   2.0000      -0.357400        -9.7254
  76   2.0000      -0.351922        -9.5763
  77   2.0000      -0.326581        -8.8867
  78   2.0000      -0.288903        -7.8615
  79   2.0000      -0.273322        -7.4375
  80   2.0000      -0.249470        -6.7884
  81   2.0000      -0.242996        -6.6123
  82   2.0000      -0.224436        -6.1072
  83   2.0000      -0.214748        -5.8436
  84   2.0000      -0.206255        -5.6125
  85   2.0000      -0.200112        -5.4453
  86   2.0000      -0.178145        -4.8476
  87   0.0000       0.116509         3.1704
  88   0.0000       0.144615         3.9352
  89   0.0000       0.166134         4.5207
  90   0.0000       0.169937         4.6242
  91   0.0000       0.188501         5.1294

MULLIKEN ATOMIC CHARGES
-----------------------
   0 H :    0.073374
   1 C :   -0.211511
   2 H :    0.092514
   3 H :    0.069671
   4 C :   -0.144507
   5 H :    0.092715
   6 H :    0.029641
   7 C :   -0.016961
   8 H :    0.069878
   9 H :    0.154882
  10 N :   -0.356074
  11 H :    0.298258
  12 C :    0.599496
  13 N :   -0.424907
  14 H :    0.217628
  15 H :    0.183694
  16 N :   -0.417001
  17 H :    0.176938
  18 H :    0.315425
  19 C :   -0.235995
  20 H :    0.146487
  21 H :    0.167990
  22 C :    0.061172
  23 C :    0.634792
  24 O :   -0.653014
  25 O :   -0.705175
  26 O :   -0.569050
  27 C :    0.163256
  28 H :    0.085059
  29 C :   -0.147680
  30 H :    0.146008
  31 C :   -0.205458
  32 C :   -0.134115
  33 H :    0.189761
  34 C :   -0.161140
  35 H :    0.135469
  36 C :    0.200591
  37 H :    0.042102
  38 O :   -0.494891
  39 H :    0.228107
  40 C :    0.682641
  41 O :   -0.710329
  42 O :   -0.669738
Sum of atomic charges:   -1.0000000

LOEWDIN ATOMIC CHARGES
----------------------
   0 H :   -0.102197
   1 C :    0.314897
   2 H :   -0.073362
   3 H :   -0.089055
   4 C :    0.128438
   5 H :   -0.073836
   6 H :   -0.099383
   7 C :    0.082040
   8 H :   -0.087511
   9 H :   -0.059589
  10 N :    0.696567
  11 H :   -0.333008
  12 C :   -0.519261
  13 N :    0.803761
  14 H :   -0.209582
  15 H :   -0.200850
  16 N :    0.839526
  17 H :   -0.192893
  18 H :   -0.247619
  19 C :    0.281724
  20 H :   -0.110663
  21 H :   -0.097992
  22 C :   -0.450463
  23 C :   -1.099278
  24 O :    0.175155
  25 O :    0.271272
  26 O :    0.523828
  27 C :   -0.091995
  28 H :   -0.097281
  29 C :    0.100269
  30 H :   -0.103210
  31 C :   -0.094600
  32 C :    0.123439
  33 H :   -0.083557
  34 C :    0.106001
  35 H :   -0.106240
  36 C :   -0.261712
  37 H :   -0.089650
  38 O :    0.658426
  39 H :   -0.348996
  40 C :   -1.110666
  41 O :    0.136844
  42 O :    0.192264

  Mayer bond orders larger than 0.100000
B(  0-H ,  1-C ) :   0.9910 B(  1-C ,  2-H ) :   0.9889 B(  1-C ,  3-H ) :   0.9928
B(  1-C ,  4-C ) :   0.9675 B(  4-C ,  5-H ) :   0.9746 B(  4-C ,  6-H ) :   0.9895
B(  4-C ,  7-C ) :   0.9542 B(  7-C ,  8-H ) :   0.9881 B(  7-C ,  9-H ) :   0.9651
B(  7-C , 10-N ) :   0.9194 B( 10-N , 11-H ) :   0.7718 B( 10-N , 12-C ) :   1.4754
B( 11-H , 25-O ) :   0.2221 B( 12-C , 13-N ) :   1.2033 B( 12-C , 16-N ) :   1.3845
B( 13-N , 14-H ) :   0.9596 B( 13-N , 15-H ) :   0.9859 B( 16-N , 17-H ) :   0.9857
B( 16-N , 18-H ) :   0.8335 B( 19-C , 20-H ) :   0.9976 B( 19-C , 21-H ) :   0.9471
B( 19-C , 22-C ) :   1.8666 B( 22-C , 23-C ) :   0.8689 B( 22-C , 26-O ) :   0.8493
B( 23-C , 24-O ) :   1.8859 B( 23-C , 25-O ) :   1.5154 B( 26-O , 27-C ) :   0.7536
B( 27-C , 28-H ) :   1.0032 B( 27-C , 29-C ) :   0.9935 B( 27-C , 36-C ) :   0.9091
B( 29-C , 30-H ) :   0.9418 B( 29-C , 31-C ) :   1.7817 B( 31-C , 32-C ) :   1.0281
B( 31-C , 40-C ) :   0.8027 B( 31-C , 41-O ) :  -0.1619 B( 31-C , 42-O ) :  -0.1493
B( 32-C , 33-H ) :   0.9446 B( 32-C , 34-C ) :   1.7981 B( 34-C , 35-H ) :   0.9740
B( 34-C , 36-C ) :   0.9752 B( 36-C , 37-H ) :   1.0112 B( 36-C , 38-O ) :   0.9841
B( 38-O , 39-H ) :   0.9875 B( 40-C , 41-O ) :   1.7921 B( 40-C , 42-O ) :   1.8153

E(0)                                       ...  -1154.751154677
E(0)                                       ...  -1154.751154677
E(CORR)(strong-pairs)                      ...     -4.641155958
E(CORR)(weak-pairs)                        ...     -0.012246204
E(CORR)(corrected)                         ...     -4.653402163
E(TOT)                                     ...  -1159.404556840
E(CCSD(T))                                 ...  -1159.618314361
FINAL SINGLE POINT ENERGY     -1159.618314361313

DIPOLE MOMENT
-------------
                                X             Y             Z
Electronic contribution:     24.40273      -9.01764      -0.20490
Nuclear contribution   :    -35.13857      12.45445       5.87060
                        -----------------------------------------
Total Dipole Moment    :    -10.73583       3.43681       5.66571
                        -----------------------------------------
Magnitude (a.u.)       :     12.61626
Magnitude (Debye)      :     32.06798

Rotational constants in cm-1:     0.015301     0.004186     0.004091
Rotational constants in MHz :   458.721875   125.504926   122.653351

                             ****ORCA TERMINATED NORMALLY****
TOTAL RUN TIME: 0 days 19 hours 0 minutes 55 seconds 752 msec
