                         Program Version 5.0.3 -  RELEASE  -
|  1> ! DLPNO-CCSD(T) cc-pVTZ cc-pVTZ/C TIGHTPNO TIGHTSCF
|  2> %maxcore 10000
|  3> %pal
|  4> nprocs 16
|  5> end
|  6> *xyz -1 1
|  7> H 4.321730672114 12.904763836984 8.261164929022
|  8> C 4.604587000000 11.906783000000 8.561875000000
|  9> H 5.197260000000 11.475664000000 7.746354000000
| 10> H 3.713945000000 11.280302000000 8.649413000000
| 11> C 5.379067000000 11.708466000000 9.846010000000
| 12> H 5.566006000000 10.636134000000 9.947043000000
| 13> H 4.754447000000 12.000319000000 10.695421000000
| 14> C 6.712682000000 12.434360000000 9.859956000000
| 15> H 6.618478000000 13.428035000000 10.300632000000
| 16> H 7.036449000000 12.582221000000 8.832895000000
| 17> N 7.802916000000 11.720036000000 10.492795000000
| 18> H 8.575269000000 11.455317000000 9.871535000000
| 19> C 8.069695000000 11.735932000000 11.784094000000
| 20> N 7.125281000000 12.107875000000 12.671146000000
| 21> H 6.165992000000 11.913045000000 12.451825000000
| 22> H 7.400324000000 12.023620000000 13.641250000000
| 23> N 9.267893000000 11.424233000000 12.221434000000
| 24> H 9.444627000000 11.490269000000 13.219045000000
| 25> H 10.002987000000 11.144741000000 11.573021000000
| 26> C 13.041293000000 10.526962000000 9.202960000000
| 27> H 13.629228000000 10.596702000000 10.105153000000
| 28> H 13.522964000000 10.843712000000 8.288988000000
| 29> C 11.666773000000 10.652070000000 9.361922000000
| 30> C 10.722467000000 11.024309000000 8.205849000000
| 31> O 11.142521000000 11.024400000000 7.023911000000
| 32> O 9.558295000000 11.353880000000 8.501258000000
| 33> O 11.120561000000 10.420635000000 10.468219000000
| 34> C 11.173806000000 8.180176000000 10.784929000000
| 35> H 10.618395000000 8.307622000000 11.701917000000
| 36> C 12.530843000000 8.256310000000 10.776303000000
| 37> H 13.065737000000 8.580668000000 11.652369000000
| 38> C 13.227602000000 8.150089000000 9.577124000000
| 39> C 12.555252000000 7.508656000000 8.447998000000
| 40> H 13.178313000000 7.187960000000 7.623223000000
| 41> C 11.250651000000 7.264301000000 8.474914000000
| 42> H 10.763976000000 6.739750000000 7.662499000000
| 43> C 10.384803000000 7.676918000000 9.614723000000
| 44> H 9.747108000000 8.502082000000 9.270476000000
| 45> O 9.587617000000 6.581709000000 9.987197000000
| 46> H 8.868763000000 6.899525000000 10.629321000000
| 47> C 14.761982000000 8.088940000000 9.580145000000
| 48> O 15.341525000000 8.201954000000 10.688649000000
| 49> O 15.319978000000 7.888160000000 8.497244000000
| 50> *
| 51>
| 52>                          ****END OF INPUT****

CARTESIAN COORDINATES (ANGSTROEM)
---------------------------------
  H      4.321731   12.904764    8.261165
  C      4.604587   11.906783    8.561875
  H      5.197260   11.475664    7.746354
  H      3.713945   11.280302    8.649413
  C      5.379067   11.708466    9.846010
  H      5.566006   10.636134    9.947043
  H      4.754447   12.000319   10.695421
  C      6.712682   12.434360    9.859956
  H      6.618478   13.428035   10.300632
  H      7.036449   12.582221    8.832895
  N      7.802916   11.720036   10.492795
  H      8.575269   11.455317    9.871535
  C      8.069695   11.735932   11.784094
  N      7.125281   12.107875   12.671146
  H      6.165992   11.913045   12.451825
  H      7.400324   12.023620   13.641250
  N      9.267893   11.424233   12.221434
  H      9.444627   11.490269   13.219045
  H     10.002987   11.144741   11.573021
  C     13.041293   10.526962    9.202960
  H     13.629228   10.596702   10.105153
  H     13.522964   10.843712    8.288988
  C     11.666773   10.652070    9.361922
  C     10.722467   11.024309    8.205849
  O     11.142521   11.024400    7.023911
  O      9.558295   11.353880    8.501258
  O     11.120561   10.420635   10.468219
  C     11.173806    8.180176   10.784929
  H     10.618395    8.307622   11.701917
  C     12.530843    8.256310   10.776303
  H     13.065737    8.580668   11.652369
  C     13.227602    8.150089    9.577124
  C     12.555252    7.508656    8.447998
  H     13.178313    7.187960    7.623223
  C     11.250651    7.264301    8.474914
  H     10.763976    6.739750    7.662499
  C     10.384803    7.676918    9.614723
  H      9.747108    8.502082    9.270476
  O      9.587617    6.581709    9.987197
  H      8.868763    6.899525   10.629321
  C     14.761982    8.088940    9.580145
  O     15.341525    8.201954   10.688649
  O     15.319978    7.888160    8.497244

 Total Charge           Charge          ....   -1
 Multiplicity           Mult            ....    1
 Number of Electrons    NEL             ....  174
 Basis Dimension        Dim             ....  970

ORBITAL ENERGIES
----------------

  NO   OCC          E(Eh)            E(eV)
   0   2.0000     -20.469343      -556.9991
   1   2.0000     -20.394873      -554.9727
   2   2.0000     -20.342761      -553.5547
   3   2.0000     -20.320534      -552.9499
   4   2.0000     -20.305930      -552.5525
   5   2.0000     -20.301556      -552.4334
   6   2.0000     -15.575667      -423.8354
   7   2.0000     -15.541956      -422.9181
   8   2.0000     -15.526018      -422.4844
   9   2.0000     -11.351242      -308.8830
  10   2.0000     -11.214579      -305.1642
  11   2.0000     -11.185986      -304.3861
  12   2.0000     -11.178185      -304.1739
  13   2.0000     -11.171920      -304.0034
  14   2.0000     -11.171849      -304.0015
  15   2.0000     -11.156178      -303.5750
  16   2.0000     -11.152742      -303.4815
  17   2.0000     -11.149884      -303.4038
  18   2.0000     -11.143180      -303.2214
  19   2.0000     -11.110055      -302.3200
  20   2.0000     -11.102330      -302.1098
  21   2.0000     -11.088878      -301.7437
  22   2.0000     -11.071970      -301.2836
  23   2.0000      -1.315388       -35.7935
  24   2.0000      -1.267430       -34.4885
  25   2.0000      -1.241929       -33.7946
  26   2.0000      -1.208706       -32.8906
  27   2.0000      -1.196537       -32.5594
  28   2.0000      -1.176437       -32.0125
  29   2.0000      -1.163701       -31.6659
  30   2.0000      -1.105857       -30.0919
  31   2.0000      -1.085567       -29.5398
  32   2.0000      -1.020965       -27.7819
  33   2.0000      -1.020245       -27.7623
  34   2.0000      -0.905726       -24.6460
  35   2.0000      -0.902336       -24.5538
  36   2.0000      -0.886828       -24.1318
  37   2.0000      -0.846174       -23.0256
  38   2.0000      -0.816572       -22.2200
  39   2.0000      -0.780716       -21.2444
  40   2.0000      -0.743563       -20.2334
  41   2.0000      -0.739108       -20.1122
  42   2.0000      -0.707300       -19.2466
  43   2.0000      -0.702757       -19.1230
  44   2.0000      -0.686048       -18.6683
  45   2.0000      -0.648659       -17.6509
  46   2.0000      -0.630535       -17.1577
  47   2.0000      -0.608149       -16.5486
  48   2.0000      -0.603982       -16.4352
  49   2.0000      -0.593313       -16.1449
  50   2.0000      -0.590344       -16.0641
  51   2.0000      -0.572401       -15.5758
  52   2.0000      -0.565753       -15.3949
  53   2.0000      -0.541579       -14.7371
  54   2.0000      -0.535908       -14.5828
  55   2.0000      -0.526494       -14.3266
  56   2.0000      -0.511320       -13.9137
  57   2.0000      -0.493742       -13.4354
  58   2.0000      -0.485936       -13.2230
  59   2.0000      -0.482558       -13.1311
  60   2.0000      -0.470760       -12.8100
  61   2.0000      -0.469925       -12.7873
  62   2.0000      -0.466234       -12.6869
  63   2.0000      -0.457716       -12.4551
  64   2.0000      -0.455843       -12.4041
  65   2.0000      -0.433891       -11.8068
  66   2.0000      -0.432057       -11.7569
  67   2.0000      -0.426167       -11.5966
  68   2.0000      -0.420822       -11.4511
  69   2.0000      -0.411848       -11.2070
  70   2.0000      -0.408358       -11.1120
  71   2.0000      -0.404179       -10.9983
  72   2.0000      -0.391521       -10.6538
  73   2.0000      -0.373300       -10.1580
  74   2.0000      -0.361314        -9.8319
  75   2.0000      -0.346931        -9.4405
  76   2.0000      -0.339712        -9.2440
  77   2.0000      -0.332031        -9.0350
  78   2.0000      -0.292586        -7.9617
  79   2.0000      -0.262006        -7.1296
  80   2.0000      -0.238507        -6.4901
  81   2.0000      -0.236852        -6.4451
  82   2.0000      -0.235630        -6.4118
  83   2.0000      -0.224650        -6.1130
  84   2.0000      -0.211585        -5.7575
  85   2.0000      -0.202661        -5.5147
  86   2.0000      -0.155517        -4.2318
  87   0.0000       0.145779         3.9668
  88   0.0000       0.162385         4.4187
  89   0.0000       0.174944         4.7605
  90   0.0000       0.199643         5.4326
  91   0.0000       0.208104         5.6628

MULLIKEN ATOMIC CHARGES
-----------------------
   0 H :    0.100648
   1 C :   -0.304420
   2 H :    0.116875
   3 H :    0.088350
   4 C :   -0.172840
   5 H :    0.111758
   6 H :    0.060382
   7 C :   -0.096189
   8 H :    0.102155
   9 H :    0.149477
  10 N :   -0.200662
  11 H :    0.270250
  12 C :    0.310293
  13 N :   -0.294817
  14 H :    0.204468
  15 H :    0.171911
  16 N :   -0.285852
  17 H :    0.161047
  18 H :    0.303639
  19 C :   -0.446314
  20 H :    0.157028
  21 H :    0.158273
  22 C :    0.244403
  23 C :    0.370411
  24 O :   -0.546948
  25 O :   -0.598159
  26 O :   -0.573107
  27 C :   -0.028596
  28 H :    0.099101
  29 C :   -0.164193
  30 H :    0.155419
  31 C :    0.070343
  32 C :   -0.160827
  33 H :    0.182415
  34 C :   -0.151701
  35 H :    0.135216
  36 C :    0.183924
  37 H :    0.090074
  38 O :   -0.435493
  39 H :    0.215034
  40 C :    0.395183
  41 O :   -0.587896
  42 O :   -0.560063
Sum of atomic charges:   -1.0000000

LOEWDIN ATOMIC CHARGES
----------------------
   0 H :   -0.037347
   1 C :    0.112744
   2 H :   -0.013519
   3 H :   -0.027597
   4 C :    0.030326
   5 H :   -0.018867
   6 H :   -0.042590
   7 C :    0.024495
   8 H :   -0.031745
   9 H :   -0.002237
  10 N :    0.441984
  11 H :   -0.149609
  12 C :   -0.282108
  13 N :    0.442231
  14 H :   -0.072975
  15 H :   -0.067388
  16 N :    0.495023
  17 H :   -0.065148
  18 H :   -0.131748
  19 C :    0.090082
  20 H :   -0.051182
  21 H :   -0.046113
  22 C :   -0.348708
  23 C :   -0.650705
  24 O :   -0.056225
  25 O :   -0.004408
  26 O :    0.118796
  27 C :    0.100936
  28 H :   -0.044931
  29 C :    0.010013
  30 H :   -0.026865
  31 C :    0.059581
  32 C :    0.057233
  33 H :   -0.017464
  34 C :    0.054115
  35 H :   -0.033305
  36 C :   -0.162410
  37 H :   -0.021332
  38 O :    0.289407
  39 H :   -0.133246
  40 C :   -0.665656
  41 O :   -0.085741
  42 O :   -0.035795

  Mayer bond orders larger than 0.100000
B(  0-H ,  1-C ) :   0.9796 B(  1-C ,  2-H ) :   0.9814 B(  1-C ,  3-H ) :   0.9866
B(  1-C ,  4-C ) :   0.9622 B(  4-C ,  5-H ) :   0.9748 B(  4-C ,  6-H ) :   0.9822
B(  4-C ,  7-C ) :   0.9293 B(  7-C ,  8-H ) :   0.9835 B(  7-C ,  9-H ) :   0.9736
B(  7-C , 10-N ) :   0.9348 B( 10-N , 11-H ) :   0.8061 B( 10-N , 12-C ) :   1.4637
B( 11-H , 25-O ) :   0.1901 B( 12-C , 13-N ) :   1.2128 B( 12-C , 16-N ) :   1.4374
B( 13-N , 14-H ) :   0.9551 B( 13-N , 15-H ) :   0.9732 B( 16-N , 17-H ) :   0.9745
B( 16-N , 18-H ) :   0.8127 B( 18-H , 26-O ) :   0.1238 B( 19-C , 20-H ) :   0.9628
B( 19-C , 21-H ) :   0.9553 B( 19-C , 22-C ) :   1.3057 B( 19-C , 31-C ) :   0.4023
B( 22-C , 23-C ) :   0.8942 B( 22-C , 26-O ) :   1.5061 B( 23-C , 24-O ) :   1.9373
B( 23-C , 25-O ) :   1.5784 B( 26-O , 27-C ) :   0.1131 B( 27-C , 28-H ) :   0.9862
B( 27-C , 29-C ) :   1.5256 B( 27-C , 36-C ) :   0.9556 B( 29-C , 30-H ) :   0.9581
B( 29-C , 31-C ) :   1.2215 B( 31-C , 32-C ) :   1.0369 B( 31-C , 40-C ) :   0.8297
B( 31-C , 41-O ) :  -0.1169 B( 31-C , 42-O ) :  -0.1116 B( 32-C , 33-H ) :   0.9446
B( 32-C , 34-C ) :   1.7745 B( 34-C , 35-H ) :   0.9735 B( 34-C , 36-C ) :   0.9775
B( 36-C , 37-H ) :   0.9840 B( 36-C , 38-O ) :   0.9758 B( 38-O , 39-H ) :   0.9889
B( 40-C , 41-O ) :   1.8519 B( 40-C , 42-O ) :   1.8808

E(0)                                       ...  -1154.633319648
E(0)                                       ...  -1154.633319648
E(CORR)(strong-pairs)                      ...     -4.395339459
E(CORR)(weak-pairs)                        ...     -0.008219977
E(CORR)(corrected)                         ...     -4.403559436
E(TOT)                                     ...  -1159.036879084
E(CCSD(T))                                 ...  -1159.237521775
FINAL SINGLE POINT ENERGY     -1159.237521774738

DIPOLE MOMENT
-------------
                                X             Y             Z
Electronic contribution:     24.88922      -9.12787      -0.72569
Nuclear contribution   :    -35.01067      12.08354       6.04867
                        -----------------------------------------
Total Dipole Moment    :    -10.12145       2.95567       5.32297
                        -----------------------------------------
Magnitude (a.u.)       :     11.81159
Magnitude (Debye)      :     30.02268

Rotational constants in cm-1:     0.014918     0.004181     0.004104
Rotational constants in MHz :   447.227305   125.334340   123.035623

                             ****ORCA TERMINATED NORMALLY****
TOTAL RUN TIME: 0 days 11 hours 41 minutes 46 seconds 479 msec
