                         Program Version 5.0.3 -  RELEASE  -
|  1> ! DLPNO-CCSD(T) cc-pVTZ cc-pVTZ/C TIGHTPNO TIGHTSCF
|  2> %maxcore 10000
|  3> %pal
|  4> nprocs 16
|  5> end
|  6> *xyz -1 1
|  7> H 4.850706887806 12.930045247481 7.689209185846
|  8> C 5.346426000000 11.988347000000 7.873239000000
|  9> H 5.819013000000 11.687329000000 6.932932000000
| 10> H 4.605060000000 11.216891000000 8.099044000000
| 11> C 6.387662000000 11.928182000000 8.970022000000
| 12> H 5.903592000000 12.002629000000 9.947034000000
| 13> H 7.075543000000 12.768916000000 8.881942000000
| 14> C 7.142698000000 10.602975000000 8.882104000000
| 15> H 7.893049000000 10.644855000000 8.097116000000
| 16> H 6.447551000000 9.809643000000 8.614145000000
| 17> N 7.760256000000 10.162289000000 10.124023000000
| 18> H 7.529732000000 9.239758000000 10.491614000000
| 19> C 8.667751000000 10.821990000000 10.824213000000
| 20> N 9.195685000000 11.962027000000 10.351146000000
| 21> H 9.474942000000 11.853049000000 9.367742000000
| 22> H 9.974131000000 12.288525000000 10.900438000000
| 23> N 9.004296000000 10.351841000000 12.015632000000
| 24> H 9.686201000000 10.828680000000 12.591580000000
| 25> H 8.666285000000 9.433300000000 12.271676000000
| 26> C 13.480725000000 10.218818000000 9.016925000000
| 27> H 13.998468000000 9.965429000000 9.928720000000
| 28> H 14.087631000000 10.443658000000 8.155052000000
| 29> C 12.149562000000 10.301016000000 8.989122000000
| 30> C 11.430055000000 10.713495000000 7.705600000000
| 31> O 12.052035000000 10.687461000000 6.637098000000
| 32> O 10.210655000000 11.055324000000 7.831657000000
| 33> O 11.397481000000 9.926419000000 10.054930000000
| 34> C 11.196621000000 8.265291000000 10.283546000000
| 35> H 10.787330000000 8.222793000000 11.291482000000
| 36> C 12.545622000000 7.774268000000 10.157422000000
| 37> H 13.219254000000 7.868103000000 10.987898000000
| 38> C 13.046194000000 7.550860000000 8.940683000000
| 39> C 12.147591000000 7.407513000000 7.799574000000
| 40> H 12.600487000000 7.221904000000 6.836444000000
| 41> C 10.828881000000 7.415141000000 7.959017000000
| 42> H 10.176171000000 7.172297000000 7.130177000000
| 43> C 10.176306000000 7.816570000000 9.239032000000
| 44> H 9.622480000000 8.731720000000 9.038147000000
| 45> O 9.285036000000 6.800543000000 9.665263000000
| 46> H 8.720506000000 7.129954000000 10.415313000000
| 47> C 14.527376000000 7.301884000000 8.753521000000
| 48> O 15.220167000000 7.158362000000 9.782438000000
| 49> O 14.943333000000 7.275179000000 7.570590000000
| 50> *
| 51>
| 52>                          ****END OF INPUT****

CARTESIAN COORDINATES (ANGSTROEM)
---------------------------------
  H      4.850707   12.930045    7.689209
  C      5.346426   11.988347    7.873239
  H      5.819013   11.687329    6.932932
  H      4.605060   11.216891    8.099044
  C      6.387662   11.928182    8.970022
  H      5.903592   12.002629    9.947034
  H      7.075543   12.768916    8.881942
  C      7.142698   10.602975    8.882104
  H      7.893049   10.644855    8.097116
  H      6.447551    9.809643    8.614145
  N      7.760256   10.162289   10.124023
  H      7.529732    9.239758   10.491614
  C      8.667751   10.821990   10.824213
  N      9.195685   11.962027   10.351146
  H      9.474942   11.853049    9.367742
  H      9.974131   12.288525   10.900438
  N      9.004296   10.351841   12.015632
  H      9.686201   10.828680   12.591580
  H      8.666285    9.433300   12.271676
  C     13.480725   10.218818    9.016925
  H     13.998468    9.965429    9.928720
  H     14.087631   10.443658    8.155052
  C     12.149562   10.301016    8.989122
  C     11.430055   10.713495    7.705600
  O     12.052035   10.687461    6.637098
  O     10.210655   11.055324    7.831657
  O     11.397481    9.926419   10.054930
  C     11.196621    8.265291   10.283546
  H     10.787330    8.222793   11.291482
  C     12.545622    7.774268   10.157422
  H     13.219254    7.868103   10.987898
  C     13.046194    7.550860    8.940683
  C     12.147591    7.407513    7.799574
  H     12.600487    7.221904    6.836444
  C     10.828881    7.415141    7.959017
  H     10.176171    7.172297    7.130177
  C     10.176306    7.816570    9.239032
  H      9.622480    8.731720    9.038147
  O      9.285036    6.800543    9.665263
  H      8.720506    7.129954   10.415313
  C     14.527376    7.301884    8.753521
  O     15.220167    7.158362    9.782438
  O     14.943333    7.275179    7.570590

 Total Charge           Charge          ....   -1
 Multiplicity           Mult            ....    1
 Number of Electrons    NEL             ....  174
 Basis Dimension        Dim             ....  970

ORBITAL ENERGIES
----------------

  NO   OCC          E(Eh)            E(eV)
   0   2.0000     -20.484621      -557.4149
   1   2.0000     -20.432660      -556.0009
   2   2.0000     -20.335792      -553.3650
   3   2.0000     -20.317624      -552.8707
   4   2.0000     -20.290597      -552.1352
   5   2.0000     -20.289448      -552.1040
   6   2.0000     -15.582291      -424.0157
   7   2.0000     -15.574358      -423.7998
   8   2.0000     -15.531070      -422.6219
   9   2.0000     -11.365832      -309.2800
  10   2.0000     -11.219283      -305.2922
  11   2.0000     -11.190459      -304.5079
  12   2.0000     -11.182118      -304.2809
  13   2.0000     -11.178105      -304.1717
  14   2.0000     -11.169488      -303.9372
  15   2.0000     -11.169435      -303.9358
  16   2.0000     -11.139803      -303.1294
  17   2.0000     -11.124690      -302.7182
  18   2.0000     -11.097288      -301.9726
  19   2.0000     -11.095234      -301.9167
  20   2.0000     -11.093750      -301.8763
  21   2.0000     -11.074329      -301.3478
  22   2.0000     -11.069297      -301.2109
  23   2.0000      -1.327292       -36.1174
  24   2.0000      -1.279439       -34.8153
  25   2.0000      -1.230047       -33.4713
  26   2.0000      -1.201397       -32.6917
  27   2.0000      -1.194594       -32.5066
  28   2.0000      -1.177619       -32.0446
  29   2.0000      -1.163069       -31.6487
  30   2.0000      -1.104162       -30.0458
  31   2.0000      -1.070279       -29.1238
  32   2.0000      -1.021047       -27.7841
  33   2.0000      -1.008446       -27.4412
  34   2.0000      -0.908490       -24.7213
  35   2.0000      -0.900383       -24.5007
  36   2.0000      -0.894472       -24.3398
  37   2.0000      -0.854167       -23.2431
  38   2.0000      -0.822200       -22.3732
  39   2.0000      -0.774916       -21.0865
  40   2.0000      -0.750732       -20.4285
  41   2.0000      -0.739871       -20.1329
  42   2.0000      -0.724004       -19.7011
  43   2.0000      -0.699918       -19.0457
  44   2.0000      -0.677561       -18.4374
  45   2.0000      -0.639187       -17.3932
  46   2.0000      -0.628024       -17.0894
  47   2.0000      -0.608025       -16.5452
  48   2.0000      -0.604870       -16.4593
  49   2.0000      -0.604104       -16.4385
  50   2.0000      -0.595352       -16.2004
  51   2.0000      -0.576324       -15.6826
  52   2.0000      -0.562791       -15.3143
  53   2.0000      -0.550005       -14.9664
  54   2.0000      -0.528202       -14.3731
  55   2.0000      -0.521810       -14.1992
  56   2.0000      -0.505138       -13.7455
  57   2.0000      -0.498625       -13.5683
  58   2.0000      -0.493491       -13.4286
  59   2.0000      -0.480667       -13.0796
  60   2.0000      -0.477066       -12.9816
  61   2.0000      -0.471911       -12.8414
  62   2.0000      -0.466458       -12.6930
  63   2.0000      -0.454655       -12.3718
  64   2.0000      -0.447413       -12.1747
  65   2.0000      -0.435528       -11.8513
  66   2.0000      -0.433447       -11.7947
  67   2.0000      -0.423907       -11.5351
  68   2.0000      -0.412153       -11.2153
  69   2.0000      -0.407264       -11.0822
  70   2.0000      -0.399303       -10.8656
  71   2.0000      -0.395725       -10.7682
  72   2.0000      -0.384414       -10.4604
  73   2.0000      -0.374782       -10.1983
  74   2.0000      -0.372414       -10.1339
  75   2.0000      -0.357170        -9.7191
  76   2.0000      -0.351971        -9.5776
  77   2.0000      -0.328578        -8.9411
  78   2.0000      -0.282858        -7.6970
  79   2.0000      -0.256543        -6.9809
  80   2.0000      -0.238084        -6.4786
  81   2.0000      -0.235011        -6.3950
  82   2.0000      -0.219427        -5.9709
  83   2.0000      -0.211769        -5.7625
  84   2.0000      -0.195391        -5.3169
  85   2.0000      -0.192526        -5.2389
  86   2.0000      -0.176746        -4.8095
  87   0.0000       0.133200         3.6246
  88   0.0000       0.176284         4.7969
  89   0.0000       0.188498         5.1293
  90   0.0000       0.206915         5.6304
  91   0.0000       0.211252         5.7485

MULLIKEN ATOMIC CHARGES
-----------------------
   0 H :    0.111289
   1 C :   -0.307300
   2 H :    0.107408
   3 H :    0.073515
   4 C :   -0.142998
   5 H :    0.077859
   6 H :    0.122043
   7 C :   -0.109325
   8 H :    0.178770
   9 H :    0.104812
  10 N :   -0.154621
  11 H :    0.159658
  12 C :    0.349637
  13 N :   -0.264074
  14 H :    0.263037
  15 H :    0.152008
  16 N :   -0.231156
  17 H :    0.204041
  18 H :    0.171820
  19 C :   -0.367089
  20 H :    0.158286
  21 H :    0.179486
  22 C :    0.130396
  23 C :    0.410008
  24 O :   -0.529838
  25 O :   -0.652170
  26 O :   -0.534334
  27 C :    0.151571
  28 H :    0.084751
  29 C :   -0.268075
  30 H :    0.156223
  31 C :    0.036246
  32 C :   -0.136396
  33 H :    0.179369
  34 C :   -0.203089
  35 H :    0.126629
  36 C :    0.129027
  37 H :    0.092645
  38 O :   -0.417827
  39 H :    0.181786
  40 C :    0.407003
  41 O :   -0.596371
  42 O :   -0.584660
Sum of atomic charges:   -1.0000000

LOEWDIN ATOMIC CHARGES
----------------------
   0 H :   -0.035343
   1 C :    0.110750
   2 H :   -0.017197
   3 H :   -0.031829
   4 C :    0.046845
   5 H :   -0.034624
   6 H :   -0.023483
   7 C :    0.038085
   8 H :   -0.015792
   9 H :   -0.020435
  10 N :    0.431867
  11 H :   -0.062246
  12 C :   -0.255232
  13 N :    0.455446
  14 H :   -0.093466
  15 H :   -0.068353
  16 N :    0.483870
  17 H :   -0.049000
  18 H :   -0.064427
  19 C :    0.115009
  20 H :   -0.045666
  21 H :   -0.031807
  22 C :   -0.317305
  23 C :   -0.648432
  24 O :   -0.019348
  25 O :   -0.094300
  26 O :    0.141877
  27 C :    0.029905
  28 H :   -0.045766
  29 C :    0.006676
  30 H :   -0.039471
  31 C :   -0.025515
  32 C :    0.079179
  33 H :   -0.014296
  34 C :    0.030448
  35 H :   -0.040131
  36 C :   -0.147702
  37 H :   -0.041865
  38 O :    0.303146
  39 H :   -0.184436
  40 C :   -0.653392
  41 O :   -0.080138
  42 O :   -0.072107

  Mayer bond orders larger than 0.100000
B(  0-H ,  1-C ) :   0.9845 B(  1-C ,  2-H ) :   0.9794 B(  1-C ,  3-H ) :   0.9861
B(  1-C ,  4-C ) :   0.9497 B(  4-C ,  5-H ) :   0.9865 B(  4-C ,  6-H ) :   0.9730
B(  4-C ,  7-C ) :   0.9537 B(  7-C ,  8-H ) :   0.9412 B(  7-C ,  9-H ) :   0.9862
B(  7-C , 10-N ) :   0.9064 B( 10-N , 11-H ) :   0.9751 B( 10-N , 12-C ) :   1.3722
B( 12-C , 13-N ) :   1.3376 B( 12-C , 16-N ) :   1.3434 B( 13-N , 14-H ) :   0.8451
B( 13-N , 15-H ) :   0.9794 B( 14-H , 25-O ) :   0.1463 B( 16-N , 17-H ) :   0.9555
B( 16-N , 18-H ) :   0.9642 B( 19-C , 20-H ) :   0.9711 B( 19-C , 21-H ) :   0.9410
B( 19-C , 22-C ) :   1.7626 B( 22-C , 23-C ) :   0.9004 B( 22-C , 26-O ) :   1.0499
B( 23-C , 24-O ) :   1.9359 B( 23-C , 25-O ) :   1.5434 B( 26-O , 27-C ) :   0.7300
B( 27-C , 28-H ) :   0.9947 B( 27-C , 29-C ) :   1.0373 B( 27-C , 36-C ) :   0.9194
B( 29-C , 30-H ) :   0.9530 B( 29-C , 31-C ) :   1.7256 B( 31-C , 32-C ) :   1.0430
B( 31-C , 40-C ) :   0.8454 B( 31-C , 41-O ) :  -0.1426 B( 31-C , 42-O ) :  -0.1390
B( 32-C , 33-H ) :   0.9470 B( 32-C , 34-C ) :   1.7886 B( 34-C , 35-H ) :   0.9786
B( 34-C , 36-C ) :   0.9542 B( 36-C , 37-H ) :   0.9813 B( 36-C , 38-O ) :   0.9588
B( 38-O , 39-H ) :   1.0123 B( 40-C , 41-O ) :   1.8587 B( 40-C , 42-O ) :   1.8629

E(0)                                       ...  -1154.630865637
E(0)                                       ...  -1154.630865637
E(CORR)(strong-pairs)                      ...     -4.398215934
E(CORR)(weak-pairs)                        ...     -0.008469714
E(CORR)(corrected)                         ...     -4.406685648
E(TOT)                                     ...  -1159.037551285
E(CCSD(T))                                 ...  -1159.234926336
FINAL SINGLE POINT ENERGY     -1159.234926335861

DIPOLE MOMENT
-------------
                                X             Y             Z
Electronic contribution:     21.86667      -9.68416       0.49149
Nuclear contribution   :    -31.58108      12.62353       4.98835
                        -----------------------------------------
Total Dipole Moment    :     -9.71441       2.93938       5.47984
                        -----------------------------------------
Magnitude (a.u.)       :     11.53422
Magnitude (Debye)      :     29.31767

Rotational constants in cm-1:     0.016088     0.005156     0.004896
Rotational constants in MHz :   482.312983   154.564836   146.772188

                             ****ORCA TERMINATED NORMALLY****
TOTAL RUN TIME: 0 days 3 hours 59 minutes 5 seconds 696 msec
