                         Program Version 5.0.3 -  RELEASE  -
|  1> ! DLPNO-CCSD(T) cc-pVQZ cc-pVQZ/C TIGHTPNO TIGHTSCF
|  2> %maxcore 10000
|  3> %pal
|  4> nprocs 32
|  5> end
|  6> *xyz -1 1
|  7> H 4.850702572198 12.929978235016 7.689207272938
|  8> C 5.346392000000 11.988262000000 7.873225000000
|  9> H 5.818917000000 11.687204000000 6.932850000000
| 10> H 4.604958000000 11.216892000000 8.098963000000
| 11> C 6.387474000000 11.928130000000 8.969919000000
| 12> H 5.903590000000 12.002705000000 9.946992000000
| 13> H 7.075298000000 12.768926000000 8.882044000000
| 14> C 7.142409000000 10.602734000000 8.882643000000
| 15> H 7.892207000000 10.644706000000 8.097099000000
| 16> H 6.447500000000 9.809447000000 8.614142000000
| 17> N 7.759930000000 10.161740000000 10.123856000000
| 18> H 7.531729000000 9.237844000000 10.490097000000
| 19> C 8.665316000000 10.823272000000 10.825154000000
| 20> N 9.186265000000 11.968733000000 10.354159000000
| 21> H 9.469935000000 11.856414000000 9.373770000000
| 22> H 9.971142000000 12.286641000000 10.899727000000
| 23> N 9.004891000000 10.351892000000 12.014456000000
| 24> H 9.687020000000 10.828265000000 12.590405000000
| 25> H 8.669327000000 9.431744000000 12.269270000000
| 26> C 13.493881000000 9.970208000000 8.967430000000
| 27> H 13.996369000000 9.953698000000 9.924883000000
| 28> H 14.096556000000 10.339812000000 8.148559000000
| 29> C 12.133279000000 10.356834000000 9.001967000000
| 30> C 11.425665000000 10.733524000000 7.685994000000
| 31> O 12.058889000000 10.681933000000 6.627220000000
| 32> O 10.210209000000 11.064087000000 7.813054000000
| 33> O 11.463511000000 10.256205000000 10.032459000000
| 34> C 11.182707000000 7.973917000000 10.354046000000
| 35> H 10.773313000000 8.146612000000 11.336218000000
| 36> C 12.499514000000 7.791287000000 10.192241000000
| 37> H 13.197070000000 7.884616000000 11.002894000000
| 38> C 13.077512000000 7.812243000000 8.898545000000
| 39> C 12.159935000000 7.475235000000 7.792702000000
| 40> H 12.606512000000 7.246828000000 6.835511000000
| 41> C 10.844316000000 7.409302000000 7.970150000000
| 42> H 10.193336000000 7.140446000000 7.144846000000
| 43> C 10.182694000000 7.780194000000 9.255209000000
| 44> H 9.662105000000 8.724991000000 9.076430000000
| 45> O 9.232277000000 6.791093000000 9.625134000000
| 46> H 8.709838000000 7.118899000000 10.405409000000
| 47> C 14.531322000000 7.361560000000 8.741091000000
| 48> O 15.192345000000 7.157029000000 9.779774000000
| 49> O 14.949009000000 7.263017000000 7.564344000000
| 50> *
| 51>
| 52>                          ****END OF INPUT****

CARTESIAN COORDINATES (ANGSTROEM)
---------------------------------
  H      4.850703   12.929978    7.689207
  C      5.346392   11.988262    7.873225
  H      5.818917   11.687204    6.932850
  H      4.604958   11.216892    8.098963
  C      6.387474   11.928130    8.969919
  H      5.903590   12.002705    9.946992
  H      7.075298   12.768926    8.882044
  C      7.142409   10.602734    8.882643
  H      7.892207   10.644706    8.097099
  H      6.447500    9.809447    8.614142
  N      7.759930   10.161740   10.123856
  H      7.531729    9.237844   10.490097
  C      8.665316   10.823272   10.825154
  N      9.186265   11.968733   10.354159
  H      9.469935   11.856414    9.373770
  H      9.971142   12.286641   10.899727
  N      9.004891   10.351892   12.014456
  H      9.687020   10.828265   12.590405
  H      8.669327    9.431744   12.269270
  C     13.493881    9.970208    8.967430
  H     13.996369    9.953698    9.924883
  H     14.096556   10.339812    8.148559
  C     12.133279   10.356834    9.001967
  C     11.425665   10.733524    7.685994
  O     12.058889   10.681933    6.627220
  O     10.210209   11.064087    7.813054
  O     11.463511   10.256205   10.032459
  C     11.182707    7.973917   10.354046
  H     10.773313    8.146612   11.336218
  C     12.499514    7.791287   10.192241
  H     13.197070    7.884616   11.002894
  C     13.077512    7.812243    8.898545
  C     12.159935    7.475235    7.792702
  H     12.606512    7.246828    6.835511
  C     10.844316    7.409302    7.970150
  H     10.193336    7.140446    7.144846
  C     10.182694    7.780194    9.255209
  H      9.662105    8.724991    9.076430
  O      9.232277    6.791093    9.625134
  H      8.709838    7.118899   10.405409
  C     14.531322    7.361560    8.741091
  O     15.192345    7.157029    9.779774
  O     14.949009    7.263017    7.564344

 Total Charge           Charge          ....   -1
 Multiplicity           Mult            ....    1
 Number of Electrons    NEL             ....  174
 Basis Dimension        Dim             .... 1865

ORBITAL ENERGIES
----------------

  NO   OCC          E(Eh)            E(eV)
   0   2.0000     -20.473546      -557.1135
   1   2.0000     -20.402823      -555.1890
   2   2.0000     -20.347505      -553.6838
   3   2.0000     -20.338891      -553.4494
   4   2.0000     -20.301286      -552.4261
   5   2.0000     -20.296395      -552.2930
   6   2.0000     -15.577312      -423.8802
   7   2.0000     -15.569830      -423.6766
   8   2.0000     -15.526884      -422.5080
   9   2.0000     -11.361915      -309.1734
  10   2.0000     -11.217142      -305.2340
  11   2.0000     -11.181412      -304.2617
  12   2.0000     -11.175967      -304.1135
  13   2.0000     -11.174316      -304.0686
  14   2.0000     -11.167785      -303.8909
  15   2.0000     -11.167115      -303.8726
  16   2.0000     -11.151134      -303.4378
  17   2.0000     -11.137118      -303.0564
  18   2.0000     -11.116755      -302.5023
  19   2.0000     -11.101376      -302.0838
  20   2.0000     -11.097815      -301.9869
  21   2.0000     -11.094256      -301.8901
  22   2.0000     -11.084725      -301.6307
  23   2.0000      -1.323862       -36.0241
  24   2.0000      -1.270568       -34.5739
  25   2.0000      -1.254131       -34.1266
  26   2.0000      -1.217555       -33.1314
  27   2.0000      -1.191397       -32.4196
  28   2.0000      -1.187426       -32.3115
  29   2.0000      -1.160081       -31.5674
  30   2.0000      -1.122634       -30.5484
  31   2.0000      -1.079961       -29.3872
  32   2.0000      -1.019620       -27.7453
  33   2.0000      -1.012862       -27.5614
  34   2.0000      -0.906699       -24.6725
  35   2.0000      -0.899243       -24.4696
  36   2.0000      -0.888028       -24.1645
  37   2.0000      -0.848132       -23.0788
  38   2.0000      -0.819753       -22.3066
  39   2.0000      -0.772873       -21.0309
  40   2.0000      -0.747736       -20.3469
  41   2.0000      -0.737294       -20.0628
  42   2.0000      -0.720999       -19.6194
  43   2.0000      -0.694796       -18.9064
  44   2.0000      -0.691110       -18.8061
  45   2.0000      -0.637262       -17.3408
  46   2.0000      -0.624009       -16.9801
  47   2.0000      -0.602586       -16.3972
  48   2.0000      -0.601414       -16.3653
  49   2.0000      -0.597459       -16.2577
  50   2.0000      -0.592060       -16.1108
  51   2.0000      -0.576709       -15.6930
  52   2.0000      -0.563881       -15.3440
  53   2.0000      -0.551937       -15.0190
  54   2.0000      -0.524767       -14.2796
  55   2.0000      -0.522281       -14.2120
  56   2.0000      -0.514602       -14.0030
  57   2.0000      -0.498144       -13.5552
  58   2.0000      -0.498005       -13.5514
  59   2.0000      -0.483790       -13.1646
  60   2.0000      -0.478890       -13.0313
  61   2.0000      -0.467608       -12.7242
  62   2.0000      -0.465536       -12.6679
  63   2.0000      -0.460131       -12.5208
  64   2.0000      -0.446802       -12.1581
  65   2.0000      -0.442058       -12.0290
  66   2.0000      -0.433135       -11.7862
  67   2.0000      -0.430817       -11.7231
  68   2.0000      -0.418460       -11.3869
  69   2.0000      -0.415665       -11.3108
  70   2.0000      -0.402962       -10.9651
  71   2.0000      -0.400749       -10.9049
  72   2.0000      -0.392127       -10.6703
  73   2.0000      -0.374037       -10.1781
  74   2.0000      -0.370799       -10.0900
  75   2.0000      -0.358511        -9.7556
  76   2.0000      -0.339697        -9.2436
  77   2.0000      -0.330921        -9.0048
  78   2.0000      -0.291603        -7.9349
  79   2.0000      -0.270327        -7.3560
  80   2.0000      -0.248581        -6.7642
  81   2.0000      -0.245136        -6.6705
  82   2.0000      -0.233949        -6.3661
  83   2.0000      -0.222948        -6.0667
  84   2.0000      -0.214269        -5.8306
  85   2.0000      -0.202287        -5.5045
  86   2.0000      -0.168994        -4.5986
  87   0.0000       0.121840         3.3154
  88   0.0000       0.157207         4.2778
  89   0.0000       0.162696         4.4272
  90   0.0000       0.185671         5.0524
  91   0.0000       0.190058         5.1717

MULLIKEN ATOMIC CHARGES
-----------------------
   0 H :    0.096230
   1 C :   -0.220087
   2 H :    0.081722
   3 H :    0.044782
   4 C :   -0.118250
   5 H :    0.057359
   6 H :    0.092964
   7 C :   -0.029353
   8 H :    0.124412
   9 H :    0.109759
  10 N :   -0.262662
  11 H :    0.157991
  12 C :    0.657831
  13 N :   -0.342051
  14 H :    0.271922
  15 H :    0.143670
  16 N :   -0.382530
  17 H :    0.213988
  18 H :    0.182147
  19 C :   -0.273437
  20 H :    0.130678
  21 H :    0.150091
  22 C :    0.233110
  23 C :    0.592145
  24 O :   -0.594836
  25 O :   -0.728013
  26 O :   -0.599580
  27 C :   -0.040925
  28 H :    0.071683
  29 C :   -0.163267
  30 H :    0.164928
  31 C :   -0.022884
  32 C :   -0.179157
  33 H :    0.206094
  34 C :   -0.149326
  35 H :    0.135839
  36 C :    0.194028
  37 H :    0.020489
  38 O :   -0.492501
  39 H :    0.196545
  40 C :    0.622850
  41 O :   -0.679105
  42 O :   -0.675294
Sum of atomic charges:   -1.0000000

LOEWDIN ATOMIC CHARGES
----------------------
   0 H :   -0.101699
   1 C :    0.312634
   2 H :   -0.078141
   3 H :   -0.092057
   4 C :    0.144757
   5 H :   -0.090750
   6 H :   -0.083510
   7 C :    0.095075
   8 H :   -0.080428
   9 H :   -0.076631
  10 N :    0.687187
  11 H :   -0.187725
  12 C :   -0.505656
  13 N :    0.807638
  14 H :   -0.244533
  15 H :   -0.207872
  16 N :    0.834273
  17 H :   -0.180123
  18 H :   -0.194785
  19 C :    0.295253
  20 H :   -0.114062
  21 H :   -0.107263
  22 C :   -0.605975
  23 C :   -1.093824
  24 O :    0.230693
  25 O :    0.181992
  26 O :    0.362573
  27 C :    0.087961
  28 H :   -0.126863
  29 C :    0.076283
  30 H :   -0.094427
  31 C :   -0.037937
  32 C :    0.136809
  33 H :   -0.082235
  34 C :    0.120660
  35 H :   -0.102444
  36 C :   -0.280067
  37 H :   -0.099417
  38 O :    0.672666
  39 H :   -0.406482
  40 C :   -1.105596
  41 O :    0.165550
  42 O :    0.168500

  Mayer bond orders larger than 0.100000
B(  0-H ,  1-C ) :   0.9975 B(  1-C ,  2-H ) :   0.9853 B(  1-C ,  3-H ) :   0.9935
B(  1-C ,  4-C ) :   0.9559 B(  4-C ,  5-H ) :   0.9908 B(  4-C ,  6-H ) :   0.9796
B(  4-C ,  7-C ) :   0.9637 B(  7-C ,  8-H ) :   0.9498 B(  7-C ,  9-H ) :   0.9855
B(  7-C , 10-N ) :   0.9206 B( 10-N , 11-H ) :   0.9868 B( 10-N , 12-C ) :   1.3266
B( 12-C , 13-N ) :   1.3364 B( 12-C , 16-N ) :   1.3359 B( 13-N , 14-H ) :   0.8594
B( 13-N , 15-H ) :   1.0030 B( 14-H , 25-O ) :   0.1333 B( 16-N , 17-H ) :   0.9640
B( 16-N , 18-H ) :   0.9749 B( 19-C , 20-H ) :   0.9857 B( 19-C , 21-H ) :   0.9531
B( 19-C , 22-C ) :   1.1757 B( 19-C , 31-C ) :   0.5715 B( 22-C , 23-C ) :   0.8521
B( 22-C , 26-O ) :   1.7132 B( 23-C , 24-O ) :   1.8950 B( 23-C , 25-O ) :   1.5407
B( 27-C , 28-H ) :   0.9806 B( 27-C , 29-C ) :   1.6673 B( 27-C , 36-C ) :   0.9367
B( 29-C , 30-H ) :   0.9671 B( 29-C , 31-C ) :   1.0909 B( 31-C , 32-C ) :   1.0495
B( 31-C , 40-C ) :   0.7822 B( 31-C , 41-O ) :  -0.1371 B( 31-C , 42-O ) :  -0.1614
B( 32-C , 33-H ) :   0.9257 B( 32-C , 34-C ) :   1.8146 B( 34-C , 35-H ) :   0.9731
B( 34-C , 36-C ) :   1.0012 B( 36-C , 37-H ) :   1.0025 B( 36-C , 38-O ) :   0.9106
B( 38-O , 39-H ) :   1.0199 B( 40-C , 41-O ) :   1.8237 B( 40-C , 42-O ) :   1.8282

E(0)                                       ...  -1154.711166188
E(0)                                       ...  -1154.711166188
E(CORR)(strong-pairs)                      ...     -4.653851415
E(CORR)(weak-pairs)                        ...     -0.012978634
E(CORR)(corrected)                         ...     -4.666830049
E(TOT)                                     ...  -1159.377996237
E(CCSD(T))                                 ...  -1159.597534441
FINAL SINGLE POINT ENERGY     -1159.597534440827

DIPOLE MOMENT
-------------
                                X             Y             Z
Electronic contribution:     22.30526      -8.85709      -0.09613
Nuclear contribution   :    -31.55377      12.22703       5.14731
                        -----------------------------------------
Total Dipole Moment    :     -9.24850       3.36994       5.05119
                        -----------------------------------------
Magnitude (a.u.)       :     11.06372
Magnitude (Debye)      :     28.12173

Rotational constants in cm-1:     0.015909     0.005158     0.004890
Rotational constants in MHz :   476.936663   154.618959   146.610320

                             ****ORCA TERMINATED NORMALLY****
TOTAL RUN TIME: 1 days 3 hours 26 minutes 56 seconds 495 msec
