                         Program Version 5.0.3 -  RELEASE  -
|  1> ! DLPNO-CCSD(T) cc-pVQZ cc-pVQZ/C TIGHTPNO TIGHTSCF
|  2> %maxcore 10000
|  3> %pal
|  4> nprocs 16
|  5> end
|  6> *xyz -1 1
|  7> H 4.850745564798 12.929940336313 7.689246415411
|  8> C 5.346434000000 11.988230000000 7.873297000000
|  9> H 5.818987000000 11.687284000000 6.932920000000
| 10> H 4.604976000000 11.216834000000 8.099032000000
| 11> C 6.387642000000 11.928107000000 8.969981000000
| 12> H 5.903695000000 12.002622000000 9.947053000000
| 13> H 7.075533000000 12.768799000000 8.881997000000
| 14> C 7.142859000000 10.602862000000 8.882098000000
| 15> H 7.892840000000 10.645354000000 8.096775000000
| 16> H 6.447574000000 9.809648000000 8.614018000000
| 17> N 7.761285000000 10.161433000000 10.123054000000
| 18> H 7.530236000000 9.239443000000 10.491146000000
| 19> C 8.667853000000 10.823099000000 10.823916000000
| 20> N 9.190296000000 11.966110000000 10.352291000000
| 21> H 9.473883000000 11.853423000000 9.370681000000
| 22> H 9.973979000000 12.285689000000 10.898721000000
| 23> N 9.004674000000 10.352349000000 12.014841000000
| 24> H 9.687684000000 10.828461000000 12.590096000000
| 25> H 8.667297000000 9.433544000000 12.270560000000
| 26> C 13.497471000000 10.124834000000 8.990388000000
| 27> H 14.002736000000 9.965480000000 9.929403000000
| 28> H 14.103335000000 10.391811000000 8.142497000000
| 29> C 12.146236000000 10.352758000000 8.999894000000
| 30> C 11.431561000000 10.727023000000 7.693401000000
| 31> O 12.053873000000 10.681623000000 6.625762000000
| 32> O 10.210801000000 11.057931000000 7.817585000000
| 33> O 11.439724000000 10.141477000000 10.040080000000
| 34> C 11.183713000000 8.059896000000 10.332128000000
| 35> H 10.776000000000 8.181377000000 11.324220000000
| 36> C 12.515008000000 7.773270000000 10.179404000000
| 37> H 13.205526000000 7.874471000000 10.994819000000
| 38> C 13.051445000000 7.668223000000 8.919703000000
| 39> C 12.151584000000 7.437936000000 7.795097000000
| 40> H 12.603638000000 7.236237000000 6.835244000000
| 41> C 10.833019000000 7.408642000000 7.963959000000
| 42> H 10.181591000000 7.156225000000 7.136612000000
| 43> C 10.178662000000 7.786800000000 9.248950000000
| 44> H 9.653735000000 8.726833000000 9.065413000000
| 45> O 9.248094000000 6.790583000000 9.640450000000
| 46> H 8.710204000000 7.122535000000 10.409350000000
| 47> C 14.528537000000 7.337625000000 8.746468000000
| 48> O 15.201730000000 7.159739000000 9.781723000000
| 49> O 14.944198000000 7.268365000000 7.567336000000
| 50> *
| 51>
| 52>                          ****END OF INPUT****

CARTESIAN COORDINATES (ANGSTROEM)
---------------------------------
  H      4.850746   12.929940    7.689246
  C      5.346434   11.988230    7.873297
  H      5.818987   11.687284    6.932920
  H      4.604976   11.216834    8.099032
  C      6.387642   11.928107    8.969981
  H      5.903695   12.002622    9.947053
  H      7.075533   12.768799    8.881997
  C      7.142859   10.602862    8.882098
  H      7.892840   10.645354    8.096775
  H      6.447574    9.809648    8.614018
  N      7.761285   10.161433   10.123054
  H      7.530236    9.239443   10.491146
  C      8.667853   10.823099   10.823916
  N      9.190296   11.966110   10.352291
  H      9.473883   11.853423    9.370681
  H      9.973979   12.285689   10.898721
  N      9.004674   10.352349   12.014841
  H      9.687684   10.828461   12.590096
  H      8.667297    9.433544   12.270560
  C     13.497471   10.124834    8.990388
  H     14.002736    9.965480    9.929403
  H     14.103335   10.391811    8.142497
  C     12.146236   10.352758    8.999894
  C     11.431561   10.727023    7.693401
  O     12.053873   10.681623    6.625762
  O     10.210801   11.057931    7.817585
  O     11.439724   10.141477   10.040080
  C     11.183713    8.059896   10.332128
  H     10.776000    8.181377   11.324220
  C     12.515008    7.773270   10.179404
  H     13.205526    7.874471   10.994819
  C     13.051445    7.668223    8.919703
  C     12.151584    7.437936    7.795097
  H     12.603638    7.236237    6.835244
  C     10.833019    7.408642    7.963959
  H     10.181591    7.156225    7.136612
  C     10.178662    7.786800    9.248950
  H      9.653735    8.726833    9.065413
  O      9.248094    6.790583    9.640450
  H      8.710204    7.122535   10.409350
  C     14.528537    7.337625    8.746468
  O     15.201730    7.159739    9.781723
  O     14.944198    7.268365    7.567336

 Total Charge           Charge          ....   -1
 Multiplicity           Mult            ....    1
 Number of Electrons    NEL             ....  174
 Basis Dimension        Dim             .... 1865

ORBITAL ENERGIES
----------------

  NO   OCC          E(Eh)            E(eV)
   0   2.0000     -20.486493      -557.4658
   1   2.0000     -20.389279      -554.8205
   2   2.0000     -20.336662      -553.3887
   3   2.0000     -20.323538      -553.0316
   4   2.0000     -20.305657      -552.5450
   5   2.0000     -20.303376      -552.4830
   6   2.0000     -15.577051      -423.8731
   7   2.0000     -15.569698      -423.6730
   8   2.0000     -15.524523      -422.4437
   9   2.0000     -11.361040      -309.1496
  10   2.0000     -11.216509      -305.2167
  11   2.0000     -11.186356      -304.3962
  12   2.0000     -11.175143      -304.0911
  13   2.0000     -11.168737      -303.9168
  14   2.0000     -11.167123      -303.8729
  15   2.0000     -11.161324      -303.7151
  16   2.0000     -11.156495      -303.5837
  17   2.0000     -11.139298      -303.1157
  18   2.0000     -11.133392      -302.9550
  19   2.0000     -11.112170      -302.3775
  20   2.0000     -11.103557      -302.1432
  21   2.0000     -11.083557      -301.5989
  22   2.0000     -11.070114      -301.2331
  23   2.0000      -1.323012       -36.0010
  24   2.0000      -1.282999       -34.9122
  25   2.0000      -1.226719       -33.3807
  26   2.0000      -1.195505       -32.5313
  27   2.0000      -1.192866       -32.4595
  28   2.0000      -1.190656       -32.3994
  29   2.0000      -1.158226       -31.5169
  30   2.0000      -1.107750       -30.1434
  31   2.0000      -1.085643       -29.5419
  32   2.0000      -1.024310       -27.8729
  33   2.0000      -1.018872       -27.7249
  34   2.0000      -0.908563       -24.7233
  35   2.0000      -0.906030       -24.6543
  36   2.0000      -0.895735       -24.3742
  37   2.0000      -0.846003       -23.0209
  38   2.0000      -0.819029       -22.2869
  39   2.0000      -0.772088       -21.0096
  40   2.0000      -0.747240       -20.3334
  41   2.0000      -0.746131       -20.3032
  42   2.0000      -0.720455       -19.6046
  43   2.0000      -0.707414       -19.2497
  44   2.0000      -0.676564       -18.4103
  45   2.0000      -0.635839       -17.3021
  46   2.0000      -0.624263       -16.9871
  47   2.0000      -0.612967       -16.6797
  48   2.0000      -0.607718       -16.5368
  49   2.0000      -0.601663       -16.3721
  50   2.0000      -0.592653       -16.1269
  51   2.0000      -0.576201       -15.6792
  52   2.0000      -0.568815       -15.4782
  53   2.0000      -0.541701       -14.7404
  54   2.0000      -0.532443       -14.4885
  55   2.0000      -0.521575       -14.1928
  56   2.0000      -0.504012       -13.7149
  57   2.0000      -0.498552       -13.5663
  58   2.0000      -0.494914       -13.4673
  59   2.0000      -0.482419       -13.1273
  60   2.0000      -0.478058       -13.0086
  61   2.0000      -0.475302       -12.9336
  62   2.0000      -0.472225       -12.8499
  63   2.0000      -0.462960       -12.5978
  64   2.0000      -0.446014       -12.1367
  65   2.0000      -0.435066       -11.8388
  66   2.0000      -0.432253       -11.7622
  67   2.0000      -0.424920       -11.5627
  68   2.0000      -0.423872       -11.5341
  69   2.0000      -0.408889       -11.1264
  70   2.0000      -0.406001       -11.0479
  71   2.0000      -0.397505       -10.8167
  72   2.0000      -0.389028       -10.5860
  73   2.0000      -0.376252       -10.2383
  74   2.0000      -0.367976       -10.0131
  75   2.0000      -0.364273        -9.9124
  76   2.0000      -0.347280        -9.4500
  77   2.0000      -0.325531        -8.8582
  78   2.0000      -0.288401        -7.8478
  79   2.0000      -0.258163        -7.0250
  80   2.0000      -0.238765        -6.4971
  81   2.0000      -0.236644        -6.4394
  82   2.0000      -0.234069        -6.3693
  83   2.0000      -0.226876        -6.1736
  84   2.0000      -0.209885        -5.7113
  85   2.0000      -0.200883        -5.4663
  86   2.0000      -0.158267        -4.3067
  87   0.0000       0.117747         3.2041
  88   0.0000       0.155519         4.2319
  89   0.0000       0.161149         4.3851
  90   0.0000       0.173147         4.7116
  91   0.0000       0.185148         5.0381

MULLIKEN ATOMIC CHARGES
-----------------------
   0 H :    0.096458
   1 C :   -0.220475
   2 H :    0.082329
   3 H :    0.043696
   4 C :   -0.118330
   5 H :    0.056596
   6 H :    0.094538
   7 C :   -0.029257
   8 H :    0.125137
   9 H :    0.107514
  10 N :   -0.266298
  11 H :    0.154714
  12 C :    0.662835
  13 N :   -0.343802
  14 H :    0.273843
  15 H :    0.144127
  16 N :   -0.382505
  17 H :    0.214521
  18 H :    0.177095
  19 C :   -0.298182
  20 H :    0.141281
  21 H :    0.152207
  22 C :    0.136335
  23 C :    0.615545
  24 O :   -0.614192
  25 O :   -0.740111
  26 O :   -0.667690
  27 C :    0.086597
  28 H :    0.104100
  29 C :   -0.183005
  30 H :    0.151311
  31 C :   -0.043721
  32 C :   -0.165258
  33 H :    0.204933
  34 C :   -0.128363
  35 H :    0.142839
  36 C :    0.171987
  37 H :    0.042376
  38 O :   -0.490253
  39 H :    0.201954
  40 C :    0.648704
  41 O :   -0.674384
  42 O :   -0.667749
Sum of atomic charges:   -1.0000000

LOEWDIN ATOMIC CHARGES
----------------------
   0 H :   -0.101651
   1 C :    0.312581
   2 H :   -0.078016
   3 H :   -0.092423
   4 C :    0.145131
   5 H :   -0.091003
   6 H :   -0.082948
   7 C :    0.094988
   8 H :   -0.080604
   9 H :   -0.077516
  10 N :    0.686476
  11 H :   -0.190505
  12 C :   -0.506268
  13 N :    0.809433
  14 H :   -0.244708
  15 H :   -0.206254
  16 N :    0.833418
  17 H :   -0.180143
  18 H :   -0.197684
  19 C :    0.272091
  20 H :   -0.123307
  21 H :   -0.115813
  22 C :   -0.623293
  23 C :   -1.095050
  24 O :    0.216866
  25 O :    0.168585
  26 O :    0.323263
  27 C :    0.115132
  28 H :   -0.111090
  29 C :    0.073237
  30 H :   -0.096571
  31 C :   -0.020470
  32 C :    0.143287
  33 H :   -0.078867
  34 C :    0.134232
  35 H :   -0.100398
  36 C :   -0.266789
  37 H :   -0.093995
  38 O :    0.676877
  39 H :   -0.401134
  40 C :   -1.096340
  41 O :    0.171365
  42 O :    0.175877

  Mayer bond orders larger than 0.100000
B(  0-H ,  1-C ) :   0.9975 B(  1-C ,  2-H ) :   0.9853 B(  1-C ,  3-H ) :   0.9935
B(  1-C ,  4-C ) :   0.9554 B(  4-C ,  5-H ) :   0.9911 B(  4-C ,  6-H ) :   0.9795
B(  4-C ,  7-C ) :   0.9644 B(  7-C ,  8-H ) :   0.9485 B(  7-C ,  9-H ) :   0.9857
B(  7-C , 10-N ) :   0.9202 B( 10-N , 11-H ) :   0.9892 B( 10-N , 12-C ) :   1.3200
B( 12-C , 13-N ) :   1.3431 B( 12-C , 16-N ) :   1.3283 B( 13-N , 14-H ) :   0.8525
B( 13-N , 15-H ) :   1.0019 B( 14-H , 25-O ) :   0.1421 B( 16-N , 17-H ) :   0.9641
B( 16-N , 18-H ) :   0.9786 B( 19-C , 20-H ) :   0.9938 B( 19-C , 21-H ) :   0.9545
B( 19-C , 22-C ) :   1.5004 B( 19-C , 31-C ) :   0.2573 B( 22-C , 23-C ) :   0.8576
B( 22-C , 26-O ) :   1.4290 B( 23-C , 24-O ) :   1.8869 B( 23-C , 25-O ) :   1.5212
B( 26-O , 27-C ) :   0.2177 B( 27-C , 28-H ) :   0.9710 B( 27-C , 29-C ) :   1.4210
B( 27-C , 36-C ) :   0.9452 B( 29-C , 30-H ) :   0.9633 B( 29-C , 31-C ) :   1.3428
B( 31-C , 32-C ) :   1.0691 B( 31-C , 40-C ) :   0.7802 B( 31-C , 41-O ) :  -0.1588
B( 31-C , 42-O ) :  -0.1610 B( 32-C , 33-H ) :   0.9285 B( 32-C , 34-C ) :   1.7906
B( 34-C , 35-H ) :   0.9655 B( 34-C , 36-C ) :   1.0007 B( 36-C , 37-H ) :   0.9940
B( 36-C , 38-O ) :   0.9047 B( 38-O , 39-H ) :   1.0159 B( 40-C , 41-O ) :   1.8281
B( 40-C , 42-O ) :   1.8220

E(0)                                       ...  -1154.694081180
E(0)                                       ...  -1154.694081180
E(CORR)(strong-pairs)                      ...     -4.656636579
E(CORR)(weak-pairs)                        ...     -0.013194146
E(CORR)(corrected)                         ...     -4.669830725
E(TOT)                                     ...  -1159.363911906
E(CCSD(T))                                 ...  -1159.586252390
FINAL SINGLE POINT ENERGY     -1159.586252389973

DIPOLE MOMENT
-------------
                                X             Y             Z
Electronic contribution:     22.09358      -9.77080       0.13241
Nuclear contribution   :    -31.53763      12.41113       5.08040
                        -----------------------------------------
Total Dipole Moment    :     -9.44405       2.64033       5.21281
                        -----------------------------------------
Magnitude (a.u.)       :     11.10562
Magnitude (Debye)      :     28.22825

Rotational constants in cm-1:     0.015889     0.005155     0.004891
Rotational constants in MHz :   476.341170   154.530320   146.614867

                             ****ORCA TERMINATED NORMALLY****
TOTAL RUN TIME: 2 days 10 hours 8 minutes 50 seconds 174 msec
