                         Program Version 5.0.3 -  RELEASE  -
|  1> ! DLPNO-CCSD(T) cc-pVQZ cc-pVQZ/C TIGHTPNO TIGHTSCF
|  2> %maxcore 10000
|  3> %pal
|  4> nprocs 32
|  5> end
|  6> *xyz -1 1
|  7> H 4.321730672114 12.904763836984 8.261164929022
|  8> C 4.604587000000 11.906783000000 8.561875000000
|  9> H 5.197260000000 11.475664000000 7.746354000000
| 10> H 3.713945000000 11.280302000000 8.649413000000
| 11> C 5.379067000000 11.708466000000 9.846010000000
| 12> H 5.566006000000 10.636134000000 9.947043000000
| 13> H 4.754447000000 12.000319000000 10.695421000000
| 14> C 6.712682000000 12.434360000000 9.859956000000
| 15> H 6.618478000000 13.428035000000 10.300632000000
| 16> H 7.036449000000 12.582221000000 8.832895000000
| 17> N 7.802916000000 11.720036000000 10.492795000000
| 18> H 8.575269000000 11.455317000000 9.871535000000
| 19> C 8.069695000000 11.735932000000 11.784094000000
| 20> N 7.125281000000 12.107875000000 12.671146000000
| 21> H 6.165992000000 11.913045000000 12.451825000000
| 22> H 7.400324000000 12.023620000000 13.641250000000
| 23> N 9.267893000000 11.424233000000 12.221434000000
| 24> H 9.444627000000 11.490269000000 13.219045000000
| 25> H 10.002987000000 11.144741000000 11.573021000000
| 26> C 13.041293000000 10.526962000000 9.202960000000
| 27> H 13.629228000000 10.596702000000 10.105153000000
| 28> H 13.522964000000 10.843712000000 8.288988000000
| 29> C 11.666773000000 10.652070000000 9.361922000000
| 30> C 10.722467000000 11.024309000000 8.205849000000
| 31> O 11.142521000000 11.024400000000 7.023911000000
| 32> O 9.558295000000 11.353880000000 8.501258000000
| 33> O 11.120561000000 10.420635000000 10.468219000000
| 34> C 11.173806000000 8.180176000000 10.784929000000
| 35> H 10.618395000000 8.307622000000 11.701917000000
| 36> C 12.530843000000 8.256310000000 10.776303000000
| 37> H 13.065737000000 8.580668000000 11.652369000000
| 38> C 13.227602000000 8.150089000000 9.577124000000
| 39> C 12.555252000000 7.508656000000 8.447998000000
| 40> H 13.178313000000 7.187960000000 7.623223000000
| 41> C 11.250651000000 7.264301000000 8.474914000000
| 42> H 10.763976000000 6.739750000000 7.662499000000
| 43> C 10.384803000000 7.676918000000 9.614723000000
| 44> H 9.747108000000 8.502082000000 9.270476000000
| 45> O 9.587617000000 6.581709000000 9.987197000000
| 46> H 8.868763000000 6.899525000000 10.629321000000
| 47> C 14.761982000000 8.088940000000 9.580145000000
| 48> O 15.341525000000 8.201954000000 10.688649000000
| 49> O 15.319978000000 7.888160000000 8.497244000000
| 50> *
| 51>
| 52>                          ****END OF INPUT****

CARTESIAN COORDINATES (ANGSTROEM)
---------------------------------
  H      4.321731   12.904764    8.261165
  C      4.604587   11.906783    8.561875
  H      5.197260   11.475664    7.746354
  H      3.713945   11.280302    8.649413
  C      5.379067   11.708466    9.846010
  H      5.566006   10.636134    9.947043
  H      4.754447   12.000319   10.695421
  C      6.712682   12.434360    9.859956
  H      6.618478   13.428035   10.300632
  H      7.036449   12.582221    8.832895
  N      7.802916   11.720036   10.492795
  H      8.575269   11.455317    9.871535
  C      8.069695   11.735932   11.784094
  N      7.125281   12.107875   12.671146
  H      6.165992   11.913045   12.451825
  H      7.400324   12.023620   13.641250
  N      9.267893   11.424233   12.221434
  H      9.444627   11.490269   13.219045
  H     10.002987   11.144741   11.573021
  C     13.041293   10.526962    9.202960
  H     13.629228   10.596702   10.105153
  H     13.522964   10.843712    8.288988
  C     11.666773   10.652070    9.361922
  C     10.722467   11.024309    8.205849
  O     11.142521   11.024400    7.023911
  O      9.558295   11.353880    8.501258
  O     11.120561   10.420635   10.468219
  C     11.173806    8.180176   10.784929
  H     10.618395    8.307622   11.701917
  C     12.530843    8.256310   10.776303
  H     13.065737    8.580668   11.652369
  C     13.227602    8.150089    9.577124
  C     12.555252    7.508656    8.447998
  H     13.178313    7.187960    7.623223
  C     11.250651    7.264301    8.474914
  H     10.763976    6.739750    7.662499
  C     10.384803    7.676918    9.614723
  H      9.747108    8.502082    9.270476
  O      9.587617    6.581709    9.987197
  H      8.868763    6.899525   10.629321
  C     14.761982    8.088940    9.580145
  O     15.341525    8.201954   10.688649
  O     15.319978    7.888160    8.497244

 Total Charge           Charge          ....   -1
 Multiplicity           Mult            ....    1
 Number of Electrons    NEL             ....  174
 Basis Dimension        Dim             .... 1865

ORBITAL ENERGIES
----------------

  NO   OCC          E(Eh)            E(eV)
   0   2.0000     -20.471848      -557.0673
   1   2.0000     -20.396475      -555.0163
   2   2.0000     -20.346775      -553.6639
   3   2.0000     -20.325440      -553.0833
   4   2.0000     -20.310533      -552.6777
   5   2.0000     -20.306468      -552.5671
   6   2.0000     -15.575504      -423.8310
   7   2.0000     -15.541887      -422.9162
   8   2.0000     -15.525854      -422.4800
   9   2.0000     -11.351457      -308.8888
  10   2.0000     -11.214431      -305.1602
  11   2.0000     -11.185480      -304.3724
  12   2.0000     -11.180015      -304.2237
  13   2.0000     -11.176161      -304.1188
  14   2.0000     -11.171287      -303.9862
  15   2.0000     -11.160431      -303.6908
  16   2.0000     -11.155513      -303.5569
  17   2.0000     -11.152241      -303.4679
  18   2.0000     -11.145122      -303.2742
  19   2.0000     -11.111559      -302.3609
  20   2.0000     -11.103843      -302.1509
  21   2.0000     -11.090759      -301.7949
  22   2.0000     -11.074236      -301.3453
  23   2.0000      -1.316209       -35.8159
  24   2.0000      -1.270247       -34.5652
  25   2.0000      -1.245658       -33.8961
  26   2.0000      -1.212673       -32.9985
  27   2.0000      -1.201342       -32.6902
  28   2.0000      -1.177347       -32.0372
  29   2.0000      -1.164592       -31.6902
  30   2.0000      -1.110668       -30.2228
  31   2.0000      -1.090403       -29.6714
  32   2.0000      -1.022818       -27.8323
  33   2.0000      -1.021345       -27.7922
  34   2.0000      -0.908091       -24.7104
  35   2.0000      -0.903004       -24.5720
  36   2.0000      -0.889609       -24.2075
  37   2.0000      -0.849213       -23.1083
  38   2.0000      -0.817592       -22.2478
  39   2.0000      -0.781522       -21.2663
  40   2.0000      -0.744802       -20.2671
  41   2.0000      -0.741998       -20.1908
  42   2.0000      -0.708423       -19.2772
  43   2.0000      -0.705392       -19.1947
  44   2.0000      -0.689688       -18.7674
  45   2.0000      -0.649981       -17.6869
  46   2.0000      -0.632113       -17.2007
  47   2.0000      -0.611153       -16.6303
  48   2.0000      -0.605393       -16.4736
  49   2.0000      -0.596613       -16.2347
  50   2.0000      -0.591545       -16.0968
  51   2.0000      -0.573413       -15.6034
  52   2.0000      -0.568656       -15.4739
  53   2.0000      -0.544766       -14.8238
  54   2.0000      -0.536776       -14.6064
  55   2.0000      -0.529575       -14.4105
  56   2.0000      -0.514438       -13.9986
  57   2.0000      -0.497005       -13.5242
  58   2.0000      -0.488568       -13.2946
  59   2.0000      -0.485759       -13.2182
  60   2.0000      -0.473555       -12.8861
  61   2.0000      -0.473284       -12.8787
  62   2.0000      -0.467069       -12.7096
  63   2.0000      -0.459845       -12.5130
  64   2.0000      -0.457914       -12.4605
  65   2.0000      -0.436161       -11.8685
  66   2.0000      -0.434668       -11.8279
  67   2.0000      -0.430526       -11.7152
  68   2.0000      -0.424718       -11.5572
  69   2.0000      -0.415300       -11.3009
  70   2.0000      -0.409896       -11.1538
  71   2.0000      -0.408225       -11.1084
  72   2.0000      -0.395685       -10.7671
  73   2.0000      -0.377493       -10.2721
  74   2.0000      -0.364317        -9.9136
  75   2.0000      -0.348416        -9.4809
  76   2.0000      -0.342669        -9.3245
  77   2.0000      -0.335952        -9.1417
  78   2.0000      -0.295762        -8.0481
  79   2.0000      -0.267129        -7.2689
  80   2.0000      -0.243255        -6.6193
  81   2.0000      -0.241892        -6.5822
  82   2.0000      -0.240727        -6.5505
  83   2.0000      -0.230125        -6.2620
  84   2.0000      -0.215867        -5.8741
  85   2.0000      -0.206750        -5.6260
  86   2.0000      -0.158722        -4.3191
  87   0.0000       0.122274         3.3273
  88   0.0000       0.148643         4.0448
  89   0.0000       0.155532         4.2322
  90   0.0000       0.172321         4.6891
  91   0.0000       0.177125         4.8198

MULLIKEN ATOMIC CHARGES
-----------------------
   0 H :    0.072740
   1 C :   -0.212215
   2 H :    0.091776
   3 H :    0.068732
   4 C :   -0.143901
   5 H :    0.092059
   6 H :    0.029065
   7 C :   -0.014575
   8 H :    0.067884
   9 H :    0.152849
  10 N :   -0.362250
  11 H :    0.303350
  12 C :    0.599400
  13 N :   -0.428319
  14 H :    0.214838
  15 H :    0.182848
  16 N :   -0.422434
  17 H :    0.171226
  18 H :    0.317887
  19 C :   -0.361997
  20 H :    0.135302
  21 H :    0.154863
  22 C :    0.225604
  23 C :    0.600945
  24 O :   -0.644054
  25 O :   -0.691536
  26 O :   -0.636214
  27 C :    0.007733
  28 H :    0.108156
  29 C :   -0.142395
  30 H :    0.162140
  31 C :   -0.068816
  32 C :   -0.126848
  33 H :    0.203453
  34 C :   -0.160550
  35 H :    0.149577
  36 C :    0.215378
  37 H :    0.045810
  38 O :   -0.496238
  39 H :    0.235497
  40 C :    0.636308
  41 O :   -0.681219
  42 O :   -0.651856
Sum of atomic charges:   -1.0000000

LOEWDIN ATOMIC CHARGES
----------------------
   0 H :   -0.102576
   1 C :    0.313807
   2 H :   -0.073757
   3 H :   -0.089551
   4 C :    0.128114
   5 H :   -0.074207
   6 H :   -0.099624
   7 C :    0.079775
   8 H :   -0.088140
   9 H :   -0.060552
  10 N :    0.695163
  11 H :   -0.321508
  12 C :   -0.521349
  13 N :    0.800862
  14 H :   -0.212191
  15 H :   -0.202100
  16 N :    0.840048
  17 H :   -0.196843
  18 H :   -0.302088
  19 C :    0.267543
  20 H :   -0.123083
  21 H :   -0.119104
  22 C :   -0.592742
  23 C :   -1.090991
  24 O :    0.175353
  25 O :    0.267404
  26 O :    0.408239
  27 C :    0.135971
  28 H :   -0.106260
  29 C :    0.077796
  30 H :   -0.091056
  31 C :   -0.010105
  32 C :    0.128386
  33 H :   -0.082961
  34 C :    0.130327
  35 H :   -0.098529
  36 C :   -0.283392
  37 H :   -0.076147
  38 O :    0.658931
  39 H :   -0.340426
  40 C :   -1.106923
  41 O :    0.154010
  42 O :    0.204478

  Mayer bond orders larger than 0.100000
B(  0-H ,  1-C ) :   0.9910 B(  1-C ,  2-H ) :   0.9890 B(  1-C ,  3-H ) :   0.9931
B(  1-C ,  4-C ) :   0.9671 B(  4-C ,  5-H ) :   0.9746 B(  4-C ,  6-H ) :   0.9897
B(  4-C ,  7-C ) :   0.9545 B(  7-C ,  8-H ) :   0.9876 B(  7-C ,  9-H ) :   0.9660
B(  7-C , 10-N ) :   0.9226 B( 10-N , 11-H ) :   0.7742 B( 10-N , 12-C ) :   1.4604
B( 11-H , 25-O ) :   0.2056 B( 12-C , 13-N ) :   1.1965 B( 12-C , 16-N ) :   1.4116
B( 13-N , 14-H ) :   0.9612 B( 13-N , 15-H ) :   0.9865 B( 16-N , 17-H ) :   0.9878
B( 16-N , 18-H ) :   0.8002 B( 18-H , 26-O ) :   0.1447 B( 19-C , 20-H ) :   0.9852
B( 19-C , 21-H ) :   0.9550 B( 19-C , 22-C ) :   1.3783 B( 19-C , 31-C ) :   0.3688
B( 22-C , 23-C ) :   0.8718 B( 22-C , 26-O ) :   1.4422 B( 23-C , 24-O ) :   1.8764
B( 23-C , 25-O ) :   1.5443 B( 27-C , 28-H ) :   0.9867 B( 27-C , 29-C ) :   1.5281
B( 27-C , 36-C ) :   0.9274 B( 29-C , 30-H ) :   0.9544 B( 29-C , 31-C ) :   1.2256
B( 31-C , 32-C ) :   1.0529 B( 31-C , 40-C ) :   0.7825 B( 31-C , 41-O ) :  -0.1417
B( 31-C , 42-O ) :  -0.1293 B( 32-C , 33-H ) :   0.9282 B( 32-C , 34-C ) :   1.7871
B( 34-C , 35-H ) :   0.9683 B( 34-C , 36-C ) :   1.0009 B( 36-C , 37-H ) :   1.0108
B( 36-C , 38-O ) :   0.9833 B( 38-O , 39-H ) :   0.9875 B( 40-C , 41-O ) :   1.8149
B( 40-C , 42-O ) :   1.8263

E(0)                                       ...  -1154.718121431
E(0)                                       ...  -1154.718121431
E(CORR)(strong-pairs)                      ...     -4.649220506
E(CORR)(weak-pairs)                        ...     -0.012696259
E(CORR)(corrected)                         ...     -4.661916765
E(TOT)                                     ...  -1159.380038196
E(CCSD(T))                                 ...  -1159.600472883
FINAL SINGLE POINT ENERGY     -1159.600472883165

DIPOLE MOMENT
-------------
                                X             Y             Z
Electronic contribution:     24.86972      -9.11986      -0.74646
Nuclear contribution   :    -35.01067      12.08354       6.04867
                        -----------------------------------------
Total Dipole Moment    :    -10.14095       2.96367       5.30221
                        -----------------------------------------
Magnitude (a.u.)       :     11.82098
Magnitude (Debye)      :     30.04655

Rotational constants in cm-1:     0.014918     0.004181     0.004104
Rotational constants in MHz :   447.227305   125.334340   123.035623

                             ****ORCA TERMINATED NORMALLY****
TOTAL RUN TIME: 1 days 4 hours 12 minutes 7 seconds 658 msec
