                         Program Version 5.0.3 -  RELEASE  -
|  1> ! DLPNO-CCSD(T) cc-pVTZ cc-pVTZ/C TIGHTPNO TIGHTSCF
|  2> %maxcore 10000
|  3> %pal
|  4> nprocs 16
|  5> end
|  6> *xyz -1 1
|  7> H 4.321711229449 12.904788055622 8.261157219713
|  8> C 4.604535000000 11.906797000000 8.561864000000
|  9> H 5.197294000000 11.475739000000 7.746407000000
| 10> H 3.713914000000 11.280293000000 8.649403000000
| 11> C 5.379020000000 11.708409000000 9.846046000000
| 12> H 5.565921000000 10.636074000000 9.946973000000
| 13> H 4.754385000000 12.000268000000 10.695458000000
| 14> C 6.712556000000 12.434304000000 9.859837000000
| 15> H 6.618558000000 13.427913000000 10.300677000000
| 16> H 7.036557000000 12.582115000000 8.832895000000
| 17> N 7.803151000000 11.720012000000 10.492355000000
| 18> H 8.575493000000 11.454796000000 9.869280000000
| 19> C 8.070398000000 11.735588000000 11.782575000000
| 20> N 7.126527000000 12.106742000000 12.670792000000
| 21> H 6.166797000000 11.913658000000 12.451535000000
| 22> H 7.400964000000 12.023888000000 13.641174000000
| 23> N 9.270223000000 11.424433000000 12.219335000000
| 24> H 9.445966000000 11.490344000000 13.217512000000
| 25> H 10.005232000000 11.139135000000 11.573476000000
| 26> C 13.010530000000 10.618185000000 9.213618000000
| 27> H 13.621354000000 10.572567000000 10.100479000000
| 28> H 13.506538000000 10.872654000000 8.290378000000
| 29> C 11.664055000000 10.620126000000 9.349211000000
| 30> C 10.723895000000 11.013491000000 8.212906000000
| 31> O 11.140585000000 11.028437000000 7.027903000000
| 32> O 9.558582000000 11.348626000000 8.508915000000
| 33> O 11.095138000000 10.261065000000 10.472790000000
| 34> C 11.158945000000 8.315064000000 10.748393000000
| 35> H 10.620913000000 8.336186000000 11.687817000000
| 36> C 12.561722000000 8.256495000000 10.767369000000
| 37> H 13.082057000000 8.578832000000 11.652352000000
| 38> C 13.243714000000 8.051164000000 9.616804000000
| 39> C 12.557142000000 7.492443000000 8.456774000000
| 40> H 13.176559000000 7.183357000000 7.624992000000
| 41> C 11.247838000000 7.276680000000 8.471361000000
| 42> H 10.759753000000 6.755133000000 7.658295000000
| 43> C 10.378841000000 7.704304000000 9.605153000000
| 44> H 9.724176000000 8.504860000000 9.250376000000
| 45> O 9.613544000000 6.597956000000 10.009793000000
| 46> H 8.874926000000 6.907041000000 10.633941000000
| 47> C 14.767670000000 8.060081000000 9.592275000000
| 48> O 15.359489000000 8.200984000000 10.691670000000
| 49> O 15.318119000000 7.894659000000 8.498113000000
| 50> *
| 51>
| 52>                          ****END OF INPUT****

CARTESIAN COORDINATES (ANGSTROEM)
---------------------------------
  H      4.321711   12.904788    8.261157
  C      4.604535   11.906797    8.561864
  H      5.197294   11.475739    7.746407
  H      3.713914   11.280293    8.649403
  C      5.379020   11.708409    9.846046
  H      5.565921   10.636074    9.946973
  H      4.754385   12.000268   10.695458
  C      6.712556   12.434304    9.859837
  H      6.618558   13.427913   10.300677
  H      7.036557   12.582115    8.832895
  N      7.803151   11.720012   10.492355
  H      8.575493   11.454796    9.869280
  C      8.070398   11.735588   11.782575
  N      7.126527   12.106742   12.670792
  H      6.166797   11.913658   12.451535
  H      7.400964   12.023888   13.641174
  N      9.270223   11.424433   12.219335
  H      9.445966   11.490344   13.217512
  H     10.005232   11.139135   11.573476
  C     13.010530   10.618185    9.213618
  H     13.621354   10.572567   10.100479
  H     13.506538   10.872654    8.290378
  C     11.664055   10.620126    9.349211
  C     10.723895   11.013491    8.212906
  O     11.140585   11.028437    7.027903
  O      9.558582   11.348626    8.508915
  O     11.095138   10.261065   10.472790
  C     11.158945    8.315064   10.748393
  H     10.620913    8.336186   11.687817
  C     12.561722    8.256495   10.767369
  H     13.082057    8.578832   11.652352
  C     13.243714    8.051164    9.616804
  C     12.557142    7.492443    8.456774
  H     13.176559    7.183357    7.624992
  C     11.247838    7.276680    8.471361
  H     10.759753    6.755133    7.658295
  C     10.378841    7.704304    9.605153
  H      9.724176    8.504860    9.250376
  O      9.613544    6.597956   10.009793
  H      8.874926    6.907041   10.633941
  C     14.767670    8.060081    9.592275
  O     15.359489    8.200984   10.691670
  O     15.318119    7.894659    8.498113

 Total Charge           Charge          ....   -1
 Multiplicity           Mult            ....    1
 Number of Electrons    NEL             ....  174
 Basis Dimension        Dim             ....  970

ORBITAL ENERGIES
----------------

  NO   OCC          E(Eh)            E(eV)
   0   2.0000     -20.478438      -557.2466
   1   2.0000     -20.408388      -555.3405
   2   2.0000     -20.337288      -553.4057
   3   2.0000     -20.309584      -552.6519
   4   2.0000     -20.304236      -552.5063
   5   2.0000     -20.296917      -552.3072
   6   2.0000     -15.576961      -423.8707
   7   2.0000     -15.544827      -422.9963
   8   2.0000     -15.526535      -422.4985
   9   2.0000     -11.352721      -308.9233
  10   2.0000     -11.214739      -305.1686
  11   2.0000     -11.190645      -304.5129
  12   2.0000     -11.186431      -304.3983
  13   2.0000     -11.186270      -304.3939
  14   2.0000     -11.172033      -304.0065
  15   2.0000     -11.165188      -303.8202
  16   2.0000     -11.151233      -303.4405
  17   2.0000     -11.127680      -302.7996
  18   2.0000     -11.126792      -302.7754
  19   2.0000     -11.108401      -302.2750
  20   2.0000     -11.101687      -302.0923
  21   2.0000     -11.085839      -301.6610
  22   2.0000     -11.063281      -301.0472
  23   2.0000      -1.316578       -35.8259
  24   2.0000      -1.275050       -34.6959
  25   2.0000      -1.228567       -33.4310
  26   2.0000      -1.198174       -32.6040
  27   2.0000      -1.192995       -32.4630
  28   2.0000      -1.177108       -32.0307
  29   2.0000      -1.165036       -31.7022
  30   2.0000      -1.096603       -29.8401
  31   2.0000      -1.081910       -29.4403
  32   2.0000      -1.021399       -27.7937
  33   2.0000      -1.020636       -27.7729
  34   2.0000      -0.907682       -24.6993
  35   2.0000      -0.902913       -24.5695
  36   2.0000      -0.893091       -24.3022
  37   2.0000      -0.849305       -23.1108
  38   2.0000      -0.817554       -22.2468
  39   2.0000      -0.781355       -21.2617
  40   2.0000      -0.744529       -20.2597
  41   2.0000      -0.743056       -20.2196
  42   2.0000      -0.709115       -19.2960
  43   2.0000      -0.708358       -19.2754
  44   2.0000      -0.679323       -18.4853
  45   2.0000      -0.649103       -17.6630
  46   2.0000      -0.630226       -17.1493
  47   2.0000      -0.612066       -16.6552
  48   2.0000      -0.604351       -16.4452
  49   2.0000      -0.601780       -16.3753
  50   2.0000      -0.590816       -16.0769
  51   2.0000      -0.572894       -15.5892
  52   2.0000      -0.567992       -15.4559
  53   2.0000      -0.541548       -14.7363
  54   2.0000      -0.536421       -14.5968
  55   2.0000      -0.528823       -14.3900
  56   2.0000      -0.508716       -13.8429
  57   2.0000      -0.497591       -13.5401
  58   2.0000      -0.482539       -13.1306
  59   2.0000      -0.480817       -13.0837
  60   2.0000      -0.472096       -12.8464
  61   2.0000      -0.471181       -12.8215
  62   2.0000      -0.466404       -12.6915
  63   2.0000      -0.459066       -12.4918
  64   2.0000      -0.457437       -12.4475
  65   2.0000      -0.434143       -11.8136
  66   2.0000      -0.431826       -11.7506
  67   2.0000      -0.420598       -11.4450
  68   2.0000      -0.418168       -11.3789
  69   2.0000      -0.411295       -11.1919
  70   2.0000      -0.406187       -11.0529
  71   2.0000      -0.402428       -10.9506
  72   2.0000      -0.387977       -10.5574
  73   2.0000      -0.374082       -10.1793
  74   2.0000      -0.363557        -9.8929
  75   2.0000      -0.348095        -9.4722
  76   2.0000      -0.347094        -9.4449
  77   2.0000      -0.333854        -9.0846
  78   2.0000      -0.290121        -7.8946
  79   2.0000      -0.257175        -6.9981
  80   2.0000      -0.234201        -6.3729
  81   2.0000      -0.231914        -6.3107
  82   2.0000      -0.229412        -6.2426
  83   2.0000      -0.221210        -6.0194
  84   2.0000      -0.205090        -5.5808
  85   2.0000      -0.189734        -5.1629
  86   2.0000      -0.169050        -4.6001
  87   0.0000       0.144389         3.9290
  88   0.0000       0.171386         4.6636
  89   0.0000       0.175971         4.7884
  90   0.0000       0.198842         5.4108
  91   0.0000       0.206895         5.6299

MULLIKEN ATOMIC CHARGES
-----------------------
   0 H :    0.100979
   1 C :   -0.304349
   2 H :    0.117411
   3 H :    0.088038
   4 C :   -0.172830
   5 H :    0.110714
   6 H :    0.060195
   7 C :   -0.095854
   8 H :    0.102406
   9 H :    0.150701
  10 N :   -0.199495
  11 H :    0.269083
  12 C :    0.310153
  13 N :   -0.294424
  14 H :    0.204838
  15 H :    0.171803
  16 N :   -0.286791
  17 H :    0.161874
  18 H :    0.302670
  19 C :   -0.434493
  20 H :    0.164765
  21 H :    0.167691
  22 C :    0.194746
  23 C :    0.382833
  24 O :   -0.560453
  25 O :   -0.607864
  26 O :   -0.612207
  27 C :    0.097257
  28 H :    0.110485
  29 C :   -0.189806
  30 H :    0.155033
  31 C :    0.049902
  32 C :   -0.153353
  33 H :    0.179692
  34 C :   -0.159772
  35 H :    0.134011
  36 C :    0.159052
  37 H :    0.099264
  38 O :   -0.429741
  39 H :    0.215910
  40 C :    0.396924
  41 O :   -0.594599
  42 O :   -0.562398
Sum of atomic charges:   -1.0000000

LOEWDIN ATOMIC CHARGES
----------------------
   0 H :   -0.037198
   1 C :    0.112909
   2 H :   -0.013338
   3 H :   -0.027710
   4 C :    0.030191
   5 H :   -0.019190
   6 H :   -0.042679
   7 C :    0.025049
   8 H :   -0.031633
   9 H :   -0.001768
  10 N :    0.442513
  11 H :   -0.152724
  12 C :   -0.282339
  13 N :    0.442487
  14 H :   -0.072665
  15 H :   -0.067603
  16 N :    0.492337
  17 H :   -0.064955
  18 H :   -0.118993
  19 C :    0.095807
  20 H :   -0.048987
  21 H :   -0.041147
  22 C :   -0.354047
  23 C :   -0.649904
  24 O :   -0.067130
  25 O :   -0.011115
  26 O :    0.110590
  27 C :    0.142638
  28 H :   -0.034628
  29 C :    0.001806
  30 H :   -0.031050
  31 C :    0.020630
  32 C :    0.063390
  33 H :   -0.016482
  34 C :    0.045739
  35 H :   -0.034561
  36 C :   -0.153201
  37 H :   -0.020778
  38 O :    0.292706
  39 H :   -0.132460
  40 C :   -0.663391
  41 O :   -0.089423
  42 O :   -0.037690

  Mayer bond orders larger than 0.100000
B(  0-H ,  1-C ) :   0.9796 B(  1-C ,  2-H ) :   0.9812 B(  1-C ,  3-H ) :   0.9865
B(  1-C ,  4-C ) :   0.9623 B(  4-C ,  5-H ) :   0.9750 B(  4-C ,  6-H ) :   0.9822
B(  4-C ,  7-C ) :   0.9291 B(  7-C ,  8-H ) :   0.9836 B(  7-C ,  9-H ) :   0.9731
B(  7-C , 10-N ) :   0.9338 B( 10-N , 11-H ) :   0.8017 B( 10-N , 12-C ) :   1.4703
B( 11-H , 25-O ) :   0.2005 B( 12-C , 13-N ) :   1.2133 B( 12-C , 16-N ) :   1.4309
B( 13-N , 14-H ) :   0.9548 B( 13-N , 15-H ) :   0.9732 B( 16-N , 17-H ) :   0.9741
B( 16-N , 18-H ) :   0.8168 B( 18-H , 26-O ) :   0.1170 B( 19-C , 20-H ) :   0.9673
B( 19-C , 21-H ) :   0.9485 B( 19-C , 22-C ) :   1.6184 B( 19-C , 31-C ) :   0.1474
B( 22-C , 23-C ) :   0.9016 B( 22-C , 26-O ) :   1.1795 B( 23-C , 24-O ) :   1.9336
B( 23-C , 25-O ) :   1.5584 B( 26-O , 27-C ) :   0.4098 B( 27-C , 28-H ) :   0.9902
B( 27-C , 29-C ) :   1.2007 B( 27-C , 36-C ) :   0.9406 B( 29-C , 30-H ) :   0.9525
B( 29-C , 31-C ) :   1.5447 B( 31-C , 32-C ) :   1.0449 B( 31-C , 40-C ) :   0.8369
B( 31-C , 41-O ) :  -0.1342 B( 31-C , 42-O ) :  -0.1246 B( 32-C , 33-H ) :   0.9459
B( 32-C , 34-C ) :   1.7854 B( 34-C , 35-H ) :   0.9743 B( 34-C , 36-C ) :   0.9684
B( 36-C , 37-H ) :   0.9841 B( 36-C , 38-O ) :   0.9846 B( 38-O , 39-H ) :   0.9878
B( 40-C , 41-O ) :   1.8502 B( 40-C , 42-O ) :   1.8809

E(0)                                       ...  -1154.631554112
E(0)                                       ...  -1154.631554112
E(CORR)(strong-pairs)                      ...     -4.395167205
E(CORR)(weak-pairs)                        ...     -0.008166841
E(CORR)(corrected)                         ...     -4.403334046
E(TOT)                                     ...  -1159.034888157
E(CCSD(T))                                 ...  -1159.234362126
FINAL SINGLE POINT ENERGY     -1159.234362125917

DIPOLE MOMENT
-------------
                                X             Y             Z
Electronic contribution:     24.70652      -9.51159      -0.39273
Nuclear contribution   :    -35.04708      12.19760       5.97409
                        -----------------------------------------
Total Dipole Moment    :    -10.34057       2.68601       5.58137
                        -----------------------------------------
Magnitude (a.u.)       :     12.05378
Magnitude (Debye)      :     30.63827

Rotational constants in cm-1:     0.015051     0.004185     0.004101
Rotational constants in MHz :   451.222300   125.463480   122.956163

                             ****ORCA TERMINATED NORMALLY****
TOTAL RUN TIME: 0 days 3 hours 21 minutes 58 seconds 882 msec
