                         Program Version 5.0.3 -  RELEASE  -
|  1> ! DLPNO-CCSD(T) cc-pVQZ cc-pVQZ/C TIGHTPNO TIGHTSCF
|  2> %maxcore 10000
|  3> %pal
|  4> nprocs 32
|  5> end
|  6> *xyz -1 1
|  7> H 4.319730507516 12.905778635742 8.257654231871
|  8> C 4.602216000000 11.906393000000 8.554016000000
|  9> H 5.202880000000 11.484091000000 7.739706000000
| 10> H 3.716107000000 11.272812000000 8.632558000000
| 11> C 5.374535000000 11.713732000000 9.838472000000
| 12> H 5.615493000000 10.650762000000 9.919743000000
| 13> H 4.735518000000 11.963729000000 10.689975000000
| 14> C 6.662520000000 12.513456000000 9.859035000000
| 15> H 6.508118000000 13.501719000000 10.295197000000
| 16> H 6.978814000000 12.677005000000 8.832674000000
| 17> N 7.789977000000 11.866852000000 10.492303000000
| 18> H 8.587029000000 11.666920000000 9.886104000000
| 19> C 8.027069000000 11.829394000000 11.789235000000
| 20> N 7.043658000000 12.078071000000 12.675072000000
| 21> H 6.104205000000 11.836510000000 12.419336000000
| 22> H 7.300140000000 11.941330000000 13.643250000000
| 23> N 9.237913000000 11.580247000000 12.225607000000
| 24> H 9.410530000000 11.609444000000 13.226423000000
| 25> H 10.008986000000 11.469178000000 11.578427000000
| 26> C 13.103913000000 10.148615000000 9.309915000000
| 27> H 13.657765000000 10.597925000000 10.133105000000
| 28> H 13.617501000000 10.429931000000 8.398170000000
| 29> C 11.735925000000 10.760207000000 9.435358000000
| 30> C 10.782943000000 11.132518000000 8.253336000000
| 31> O 11.189137000000 11.036712000000 7.078030000000
| 32> O 9.658436000000 11.553099000000 8.561375000000
| 33> O 11.338516000000 11.023444000000 10.540512000000
| 34> C 11.114618000000 8.063680000000 10.882661000000
| 35> H 10.553289000000 8.067617000000 11.804856000000
| 36> C 12.392416000000 8.394543000000 10.859876000000
| 37> H 12.905050000000 8.693909000000 11.759850000000
| 38> C 13.137361000000 8.595852000000 9.580044000000
| 39> C 12.500912000000 7.775738000000 8.489914000000
| 40> H 13.145861000000 7.447765000000 7.682626000000
| 41> C 11.235494000000 7.389036000000 8.524577000000
| 42> H 10.819502000000 6.782044000000 7.729158000000
| 43> C 10.326948000000 7.721023000000 9.659093000000
| 44> H 9.720061000000 8.597514000000 9.385103000000
| 45> O 9.468181000000 6.631410000000 9.884944000000
| 46> H 8.765731000000 6.923220000000 10.552644000000
| 47> C 14.661174000000 8.269068000000 9.656310000000
| 48> O 15.190670000000 8.167421000000 10.790049000000
| 49> O 15.269476000000 8.197447000000 8.578085000000
| 50> *
| 51>
| 52>                          ****END OF INPUT****

CARTESIAN COORDINATES (ANGSTROEM)
---------------------------------
  H      4.319731   12.905779    8.257654
  C      4.602216   11.906393    8.554016
  H      5.202880   11.484091    7.739706
  H      3.716107   11.272812    8.632558
  C      5.374535   11.713732    9.838472
  H      5.615493   10.650762    9.919743
  H      4.735518   11.963729   10.689975
  C      6.662520   12.513456    9.859035
  H      6.508118   13.501719   10.295197
  H      6.978814   12.677005    8.832674
  N      7.789977   11.866852   10.492303
  H      8.587029   11.666920    9.886104
  C      8.027069   11.829394   11.789235
  N      7.043658   12.078071   12.675072
  H      6.104205   11.836510   12.419336
  H      7.300140   11.941330   13.643250
  N      9.237913   11.580247   12.225607
  H      9.410530   11.609444   13.226423
  H     10.008986   11.469178   11.578427
  C     13.103913   10.148615    9.309915
  H     13.657765   10.597925   10.133105
  H     13.617501   10.429931    8.398170
  C     11.735925   10.760207    9.435358
  C     10.782943   11.132518    8.253336
  O     11.189137   11.036712    7.078030
  O      9.658436   11.553099    8.561375
  O     11.338516   11.023444   10.540512
  C     11.114618    8.063680   10.882661
  H     10.553289    8.067617   11.804856
  C     12.392416    8.394543   10.859876
  H     12.905050    8.693909   11.759850
  C     13.137361    8.595852    9.580044
  C     12.500912    7.775738    8.489914
  H     13.145861    7.447765    7.682626
  C     11.235494    7.389036    8.524577
  H     10.819502    6.782044    7.729158
  C     10.326948    7.721023    9.659093
  H      9.720061    8.597514    9.385103
  O      9.468181    6.631410    9.884944
  H      8.765731    6.923220   10.552644
  C     14.661174    8.269068    9.656310
  O     15.190670    8.167421   10.790049
  O     15.269476    8.197447    8.578085

 Total Charge           Charge          ....   -1
 Multiplicity           Mult            ....    1
 Number of Electrons    NEL             ....  174
 Basis Dimension        Dim             .... 1865

ORBITAL ENERGIES
----------------

  NO   OCC          E(Eh)            E(eV)
   0   2.0000     -20.453025      -556.5551
   1   2.0000     -20.438756      -556.1668
   2   2.0000     -20.365504      -554.1735
   3   2.0000     -20.350583      -553.7675
   4   2.0000     -20.294930      -552.2531
   5   2.0000     -20.294055      -552.2293
   6   2.0000     -15.581862      -424.0040
   7   2.0000     -15.549866      -423.1334
   8   2.0000     -15.534657      -422.7195
   9   2.0000     -11.359202      -309.0996
  10   2.0000     -11.221958      -305.3650
  11   2.0000     -11.210085      -305.0419
  12   2.0000     -11.200422      -304.7790
  13   2.0000     -11.190663      -304.5134
  14   2.0000     -11.175730      -304.1071
  15   2.0000     -11.159914      -303.6767
  16   2.0000     -11.142877      -303.2131
  17   2.0000     -11.102056      -302.1023
  18   2.0000     -11.098169      -301.9965
  19   2.0000     -11.090816      -301.7965
  20   2.0000     -11.086397      -301.6762
  21   2.0000     -11.085279      -301.6458
  22   2.0000     -11.081683      -301.5479
  23   2.0000      -1.324767       -36.0488
  24   2.0000      -1.299884       -35.3716
  25   2.0000      -1.251986       -34.0683
  26   2.0000      -1.245081       -33.8804
  27   2.0000      -1.186373       -32.2829
  28   2.0000      -1.185907       -32.2702
  29   2.0000      -1.173656       -31.9368
  30   2.0000      -1.136483       -30.9253
  31   2.0000      -1.075251       -29.2591
  32   2.0000      -1.028624       -27.9903
  33   2.0000      -1.005599       -27.3637
  34   2.0000      -0.911172       -24.7942
  35   2.0000      -0.909497       -24.7487
  36   2.0000      -0.885546       -24.0969
  37   2.0000      -0.830404       -22.5964
  38   2.0000      -0.822796       -22.3894
  39   2.0000      -0.789596       -21.4860
  40   2.0000      -0.752879       -20.4869
  41   2.0000      -0.740709       -20.1557
  42   2.0000      -0.716152       -19.4875
  43   2.0000      -0.704302       -19.1650
  44   2.0000      -0.673786       -18.3347
  45   2.0000      -0.660064       -17.9613
  46   2.0000      -0.644279       -17.5317
  47   2.0000      -0.614830       -16.7304
  48   2.0000      -0.601416       -16.3654
  49   2.0000      -0.593246       -16.1430
  50   2.0000      -0.581175       -15.8146
  51   2.0000      -0.573301       -15.6003
  52   2.0000      -0.563810       -15.3420
  53   2.0000      -0.554869       -15.0988
  54   2.0000      -0.543144       -14.7797
  55   2.0000      -0.533907       -14.5283
  56   2.0000      -0.509230       -13.8569
  57   2.0000      -0.508563       -13.8387
  58   2.0000      -0.500430       -13.6174
  59   2.0000      -0.495689       -13.4884
  60   2.0000      -0.472751       -12.8642
  61   2.0000      -0.469362       -12.7720
  62   2.0000      -0.465470       -12.6661
  63   2.0000      -0.455282       -12.3888
  64   2.0000      -0.452007       -12.2997
  65   2.0000      -0.450784       -12.2665
  66   2.0000      -0.441026       -12.0009
  67   2.0000      -0.437405       -11.9024
  68   2.0000      -0.420981       -11.4555
  69   2.0000      -0.418165       -11.3788
  70   2.0000      -0.409196       -11.1348
  71   2.0000      -0.404239       -10.9999
  72   2.0000      -0.386849       -10.5267
  73   2.0000      -0.383819       -10.4442
  74   2.0000      -0.360909        -9.8208
  75   2.0000      -0.355678        -9.6785
  76   2.0000      -0.347008        -9.4426
  77   2.0000      -0.336799        -9.1648
  78   2.0000      -0.306215        -8.3325
  79   2.0000      -0.285312        -7.7637
  80   2.0000      -0.261834        -7.1249
  81   2.0000      -0.257693        -7.0122
  82   2.0000      -0.242962        -6.6113
  83   2.0000      -0.224642        -6.1128
  84   2.0000      -0.212172        -5.7735
  85   2.0000      -0.200167        -5.4468
  86   2.0000      -0.194656        -5.2969
  87   0.0000       0.119561         3.2534
  88   0.0000       0.146455         3.9852
  89   0.0000       0.169257         4.6057
  90   0.0000       0.171776         4.6743
  91   0.0000       0.189165         5.1474

MULLIKEN ATOMIC CHARGES
-----------------------
   0 H :    0.072964
   1 C :   -0.212110
   2 H :    0.091326
   3 H :    0.071955
   4 C :   -0.147349
   5 H :    0.096322
   6 H :    0.030687
   7 C :   -0.013548
   8 H :    0.069437
   9 H :    0.147351
  10 N :   -0.355623
  11 H :    0.298829
  12 C :    0.605488
  13 N :   -0.424997
  14 H :    0.216411
  15 H :    0.185426
  16 N :   -0.409226
  17 H :    0.174732
  18 H :    0.305108
  19 C :   -0.122355
  20 H :    0.104943
  21 H :    0.135236
  22 C :    0.305649
  23 C :    0.573837
  24 O :   -0.607197
  25 O :   -0.677088
  26 O :   -0.526961
  27 C :   -0.199268
  28 H :    0.070688
  29 C :   -0.121769
  30 H :    0.156611
  31 C :   -0.087949
  32 C :   -0.165349
  33 H :    0.193558
  34 C :   -0.214350
  35 H :    0.139192
  36 C :    0.262526
  37 H :    0.000556
  38 O :   -0.500039
  39 H :    0.228086
  40 C :    0.612389
  41 O :   -0.690054
  42 O :   -0.674072
Sum of atomic charges:   -1.0000000

LOEWDIN ATOMIC CHARGES
----------------------
   0 H :   -0.101237
   1 C :    0.314408
   2 H :   -0.073238
   3 H :   -0.088930
   4 C :    0.128178
   5 H :   -0.072622
   6 H :   -0.098755
   7 C :    0.077599
   8 H :   -0.086357
   9 H :   -0.060046
  10 N :    0.699039
  11 H :   -0.317483
  12 C :   -0.518666
  13 N :    0.804753
  14 H :   -0.211357
  15 H :   -0.200713
  16 N :    0.847167
  17 H :   -0.189906
  18 H :   -0.299953
  19 C :    0.199510
  20 H :   -0.067265
  21 H :   -0.070783
  22 C :   -0.465256
  23 C :   -1.096689
  24 O :    0.201791
  25 O :    0.275642
  26 O :    0.466433
  27 C :    0.086723
  28 H :   -0.129793
  29 C :    0.127425
  30 H :   -0.091048
  31 C :   -0.180230
  32 C :    0.142552
  33 H :   -0.086404
  34 C :    0.097687
  35 H :   -0.106776
  36 C :   -0.312034
  37 H :   -0.092250
  38 O :    0.655118
  39 H :   -0.351432
  40 C :   -1.085761
  41 O :    0.145092
  42 O :    0.185866

  Mayer bond orders larger than 0.100000
B(  0-H ,  1-C ) :   0.9908 B(  1-C ,  2-H ) :   0.9892 B(  1-C ,  3-H ) :   0.9933
B(  1-C ,  4-C ) :   0.9665 B(  4-C ,  5-H ) :   0.9754 B(  4-C ,  6-H ) :   0.9889
B(  4-C ,  7-C ) :   0.9557 B(  7-C ,  8-H ) :   0.9883 B(  7-C ,  9-H ) :   0.9693
B(  7-C , 10-N ) :   0.9202 B( 10-N , 11-H ) :   0.7937 B( 10-N , 12-C ) :   1.4517
B( 11-H , 25-O ) :   0.1890 B( 12-C , 13-N ) :   1.2074 B( 12-C , 16-N ) :   1.4052
B( 13-N , 14-H ) :   0.9602 B( 13-N , 15-H ) :   0.9847 B( 16-N , 17-H ) :   0.9870
B( 16-N , 18-H ) :   0.8293 B( 18-H , 26-O ) :   0.1244 B( 19-C , 20-H ) :   0.9676
B( 19-C , 21-H ) :   0.9516 B( 19-C , 22-C ) :   0.9181 B( 19-C , 31-C ) :   0.9088
B( 22-C , 23-C ) :   0.8702 B( 22-C , 26-O ) :   1.8241 B( 23-C , 24-O ) :   1.8928
B( 23-C , 25-O ) :   1.5675 B( 27-C , 28-H ) :   0.9967 B( 27-C , 29-C ) :   1.7872
B( 27-C , 36-C ) :   0.9460 B( 29-C , 30-H ) :   0.9629 B( 29-C , 31-C ) :   0.9476
B( 31-C , 32-C ) :   0.9934 B( 31-C , 40-C ) :   0.8165 B( 31-C , 41-O ) :  -0.1114
B( 32-C , 33-H ) :   0.9333 B( 32-C , 34-C ) :   1.8535 B( 34-C , 35-H ) :   0.9730
B( 34-C , 36-C ) :   0.9984 B( 36-C , 37-H ) :   1.0107 B( 36-C , 38-O ) :   1.0062
B( 38-O , 39-H ) :   0.9973 B( 40-C , 41-O ) :   1.8208 B( 40-C , 42-O ) :   1.8005

E(0)                                       ...  -1154.802919989
E(0)                                       ...  -1154.802919989
E(CORR)(strong-pairs)                      ...     -4.634327429
E(CORR)(weak-pairs)                        ...     -0.012028331
E(CORR)(corrected)                         ...     -4.646355760
E(TOT)                                     ...  -1159.449275749
E(CCSD(T))                                 ...  -1159.660469459
FINAL SINGLE POINT ENERGY     -1159.660469458772

DIPOLE MOMENT
-------------
                                X             Y             Z
Electronic contribution:     24.73695      -6.34259      -0.82944
Nuclear contribution   :    -35.11365      10.52753       5.76399
                        -----------------------------------------
Total Dipole Moment    :    -10.37670       4.18493       4.93455
                        -----------------------------------------
Magnitude (a.u.)       :     12.22863
Magnitude (Debye)      :     31.08270

Rotational constants in cm-1:     0.014629     0.004232     0.004186
Rotational constants in MHz :   438.554641   126.878795   125.480004

                             ****ORCA TERMINATED NORMALLY****
TOTAL RUN TIME: 0 days 11 hours 25 minutes 25 seconds 983 msec
