                         Program Version 5.0.3 -  RELEASE  -
|  1> ! DLPNO-CCSD(T) cc-pVQZ cc-pVQZ/C TIGHTPNO TIGHTSCF
|  2> %maxcore 10000
|  3> %pal
|  4> nprocs 16
|  5> end
|  6> *xyz -1 1
|  7> H 4.850781301215 12.934605292460 7.688224759549
|  8> C 5.350900000000 11.995300000000 7.872580000000
|  9> H 5.814320000000 11.687100000000 6.929940000000
| 10> H 4.616390000000 11.222300000000 8.114120000000
| 11> C 6.405250000000 11.957400000000 8.956310000000
| 12> H 5.933650000000 12.038600000000 9.938440000000
| 13> H 7.078470000000 12.808000000000 8.849450000000
| 14> C 7.178230000000 10.642400000000 8.877650000000
| 15> H 7.954460000000 10.700600000000 8.118730000000
| 16> H 6.505990000000 9.841780000000 8.576030000000
| 17> N 7.760130000000 10.197100000000 10.133200000000
| 18> H 7.540780000000 9.261380000000 10.474700000000
| 19> C 8.667680000000 10.843800000000 10.844500000000
| 20> N 9.155230000000 12.024000000000 10.424400000000
| 21> H 9.391740000000 12.000400000000 9.432430000000
| 22> H 9.968990000000 12.312300000000 10.944000000000
| 23> N 9.058580000000 10.320400000000 11.995300000000
| 24> H 9.699290000000 10.816500000000 12.602800000000
| 25> H 8.725680000000 9.394070000000 12.232700000000
| 26> C 13.434400000000 9.659130000000 8.968930000000
| 27> H 13.973900000000 9.823810000000 9.899320000000
| 28> H 14.080300000000 9.966040000000 8.158320000000
| 29> C 12.213200000000 10.517300000000 9.011080000000
| 30> C 11.477100000000 10.841200000000 7.684990000000
| 31> O 12.123900000000 10.746800000000 6.637850000000
| 32> O 10.267600000000 11.169400000000 7.812850000000
| 33> O 11.790500000000 10.937100000000 10.060200000000
| 34> C 11.115600000000 7.770220000000 10.397300000000
| 35> H 10.685400000000 7.687770000000 11.383200000000
| 36> C 12.419300000000 7.883220000000 10.233700000000
| 37> H 13.097400000000 7.939930000000 11.064300000000
| 38> C 13.071100000000 8.141650000000 8.920430000000
| 39> C 12.145900000000 7.755770000000 7.797810000000
| 40> H 12.590200000000 7.619840000000 6.822340000000
| 41> C 10.845100000000 7.556230000000 7.967210000000
| 42> H 10.225700000000 7.269060000000 7.124890000000
| 43> C 10.147900000000 7.808810000000 9.263810000000
| 44> H 9.727150000000 8.819730000000 9.203970000000
| 45> O 9.076930000000 6.898890000000 9.460740000000
| 46> H 8.594260000000 7.163270000000 10.286900000000
| 47> C 14.459700000000 7.449390000000 8.788380000000
| 48> O 15.081500000000 7.187770000000 9.836640000000
| 49> O 14.892700000000 7.304190000000 7.620260000000
| 50> *
| 51>
| 52>                          ****END OF INPUT****

CARTESIAN COORDINATES (ANGSTROEM)
---------------------------------
  H      4.850781   12.934605    7.688225
  C      5.350900   11.995300    7.872580
  H      5.814320   11.687100    6.929940
  H      4.616390   11.222300    8.114120
  C      6.405250   11.957400    8.956310
  H      5.933650   12.038600    9.938440
  H      7.078470   12.808000    8.849450
  C      7.178230   10.642400    8.877650
  H      7.954460   10.700600    8.118730
  H      6.505990    9.841780    8.576030
  N      7.760130   10.197100   10.133200
  H      7.540780    9.261380   10.474700
  C      8.667680   10.843800   10.844500
  N      9.155230   12.024000   10.424400
  H      9.391740   12.000400    9.432430
  H      9.968990   12.312300   10.944000
  N      9.058580   10.320400   11.995300
  H      9.699290   10.816500   12.602800
  H      8.725680    9.394070   12.232700
  C     13.434400    9.659130    8.968930
  H     13.973900    9.823810    9.899320
  H     14.080300    9.966040    8.158320
  C     12.213200   10.517300    9.011080
  C     11.477100   10.841200    7.684990
  O     12.123900   10.746800    6.637850
  O     10.267600   11.169400    7.812850
  O     11.790500   10.937100   10.060200
  C     11.115600    7.770220   10.397300
  H     10.685400    7.687770   11.383200
  C     12.419300    7.883220   10.233700
  H     13.097400    7.939930   11.064300
  C     13.071100    8.141650    8.920430
  C     12.145900    7.755770    7.797810
  H     12.590200    7.619840    6.822340
  C     10.845100    7.556230    7.967210
  H     10.225700    7.269060    7.124890
  C     10.147900    7.808810    9.263810
  H      9.727150    8.819730    9.203970
  O      9.076930    6.898890    9.460740
  H      8.594260    7.163270   10.286900
  C     14.459700    7.449390    8.788380
  O     15.081500    7.187770    9.836640
  O     14.892700    7.304190    7.620260

 Total Charge           Charge          ....   -1
 Multiplicity           Mult            ....    1
 Number of Electrons    NEL             ....  174
 Basis Dimension        Dim             .... 1865

ORBITAL ENERGIES
----------------

  NO   OCC          E(Eh)            E(eV)
   0   2.0000     -20.472136      -557.0751
   1   2.0000     -20.426538      -555.8344
   2   2.0000     -20.355061      -553.8894
   3   2.0000     -20.348686      -553.7159
   4   2.0000     -20.299313      -552.3724
   5   2.0000     -20.293114      -552.2037
   6   2.0000     -15.580359      -423.9631
   7   2.0000     -15.572900      -423.7602
   8   2.0000     -15.533381      -422.6848
   9   2.0000     -11.365586      -309.2733
  10   2.0000     -11.218840      -305.2802
  11   2.0000     -11.194468      -304.6170
  12   2.0000     -11.191523      -304.5368
  13   2.0000     -11.177882      -304.1656
  14   2.0000     -11.170968      -303.9775
  15   2.0000     -11.169223      -303.9300
  16   2.0000     -11.145528      -303.2852
  17   2.0000     -11.100507      -302.0602
  18   2.0000     -11.098696      -302.0109
  19   2.0000     -11.096424      -301.9491
  20   2.0000     -11.089734      -301.7670
  21   2.0000     -11.089611      -301.7636
  22   2.0000     -11.086629      -301.6825
  23   2.0000      -1.327721       -36.1291
  24   2.0000      -1.280830       -34.8531
  25   2.0000      -1.269905       -34.5559
  26   2.0000      -1.231059       -33.4988
  27   2.0000      -1.194786       -32.5118
  28   2.0000      -1.185042       -32.2466
  29   2.0000      -1.164800       -31.6958
  30   2.0000      -1.133654       -30.8483
  31   2.0000      -1.076705       -29.2986
  32   2.0000      -1.021791       -27.8043
  33   2.0000      -1.013241       -27.5717
  34   2.0000      -0.918895       -25.0044
  35   2.0000      -0.909250       -24.7420
  36   2.0000      -0.891865       -24.2689
  37   2.0000      -0.828751       -22.5515
  38   2.0000      -0.822697       -22.3867
  39   2.0000      -0.776485       -21.1292
  40   2.0000      -0.750611       -20.4252
  41   2.0000      -0.744501       -20.2589
  42   2.0000      -0.724487       -19.7143
  43   2.0000      -0.698146       -18.9975
  44   2.0000      -0.681858       -18.5543
  45   2.0000      -0.642061       -17.4714
  46   2.0000      -0.625372       -17.0172
  47   2.0000      -0.606095       -16.4927
  48   2.0000      -0.599556       -16.3147
  49   2.0000      -0.596830       -16.2406
  50   2.0000      -0.589932       -16.0529
  51   2.0000      -0.578494       -15.7416
  52   2.0000      -0.566452       -15.4139
  53   2.0000      -0.558945       -15.2097
  54   2.0000      -0.531312       -14.4577
  55   2.0000      -0.526012       -14.3135
  56   2.0000      -0.515912       -14.0387
  57   2.0000      -0.503903       -13.7119
  58   2.0000      -0.502227       -13.6663
  59   2.0000      -0.497963       -13.5503
  60   2.0000      -0.480748       -13.0818
  61   2.0000      -0.469905       -12.7868
  62   2.0000      -0.460000       -12.5172
  63   2.0000      -0.455740       -12.4013
  64   2.0000      -0.450466       -12.2578
  65   2.0000      -0.448708       -12.2100
  66   2.0000      -0.439477       -11.9588
  67   2.0000      -0.433051       -11.7839
  68   2.0000      -0.419504       -11.4153
  69   2.0000      -0.408440       -11.1142
  70   2.0000      -0.404499       -11.0070
  71   2.0000      -0.399939       -10.8829
  72   2.0000      -0.394389       -10.7319
  73   2.0000      -0.381769       -10.3885
  74   2.0000      -0.373648       -10.1675
  75   2.0000      -0.358887        -9.7658
  76   2.0000      -0.353670        -9.6238
  77   2.0000      -0.332774        -9.0552
  78   2.0000      -0.312870        -8.5136
  79   2.0000      -0.277567        -7.5530
  80   2.0000      -0.259572        -7.0633
  81   2.0000      -0.247943        -6.7469
  82   2.0000      -0.246125        -6.6974
  83   2.0000      -0.233612        -6.3569
  84   2.0000      -0.214427        -5.8349
  85   2.0000      -0.201387        -5.4800
  86   2.0000      -0.193393        -5.2625
  87   0.0000       0.122647         3.3374
  88   0.0000       0.158051         4.3008
  89   0.0000       0.163378         4.4457
  90   0.0000       0.187103         5.0913
  91   0.0000       0.190646         5.1877

MULLIKEN ATOMIC CHARGES
-----------------------
   0 H :    0.096239
   1 C :   -0.218797
   2 H :    0.080980
   3 H :    0.046097
   4 C :   -0.119092
   5 H :    0.060632
   6 H :    0.089582
   7 C :   -0.031185
   8 H :    0.126508
   9 H :    0.113806
  10 N :   -0.248116
  11 H :    0.160247
  12 C :    0.630911
  13 N :   -0.335903
  14 H :    0.259800
  15 H :    0.168171
  16 N :   -0.376028
  17 H :    0.212764
  18 H :    0.184876
  19 C :   -0.152291
  20 H :    0.108129
  21 H :    0.135909
  22 C :    0.302226
  23 C :    0.580871
  24 O :   -0.589742
  25 O :   -0.727801
  26 O :   -0.545686
  27 C :   -0.182235
  28 H :    0.059648
  29 C :   -0.123277
  30 H :    0.157968
  31 C :   -0.053724
  32 C :   -0.176812
  33 H :    0.192201
  34 C :   -0.185381
  35 H :    0.133704
  36 C :    0.223798
  37 H :   -0.011094
  38 O :   -0.493034
  39 H :    0.195937
  40 C :    0.613684
  41 O :   -0.683480
  42 O :   -0.681012
Sum of atomic charges:   -1.0000000

LOEWDIN ATOMIC CHARGES
----------------------
   0 H :   -0.101137
   1 C :    0.312364
   2 H :   -0.078117
   3 H :   -0.091665
   4 C :    0.144007
   5 H :   -0.090083
   6 H :   -0.083023
   7 C :    0.095428
   8 H :   -0.079526
   9 H :   -0.074891
  10 N :    0.685557
  11 H :   -0.185662
  12 C :   -0.501788
  13 N :    0.811953
  14 H :   -0.223823
  15 H :   -0.207115
  16 N :    0.836177
  17 H :   -0.177421
  18 H :   -0.191890
  19 C :    0.186819
  20 H :   -0.068679
  21 H :   -0.069222
  22 C :   -0.505011
  23 C :   -1.103292
  24 O :    0.237208
  25 O :    0.174329
  26 O :    0.355794
  27 C :    0.079563
  28 H :   -0.136381
  29 C :    0.134909
  30 H :   -0.089073
  31 C :   -0.184788
  32 C :    0.157281
  33 H :   -0.082744
  34 C :    0.103977
  35 H :   -0.108146
  36 C :   -0.299465
  37 H :   -0.103041
  38 O :    0.673879
  39 H :   -0.410416
  40 C :   -1.073082
  41 O :    0.166697
  42 O :    0.163540

  Mayer bond orders larger than 0.100000
B(  0-H ,  1-C ) :   0.9975 B(  1-C ,  2-H ) :   0.9855 B(  1-C ,  3-H ) :   0.9938
B(  1-C ,  4-C ) :   0.9549 B(  4-C ,  5-H ) :   0.9895 B(  4-C ,  6-H ) :   0.9809
B(  4-C ,  7-C ) :   0.9623 B(  7-C ,  8-H ) :   0.9499 B(  7-C ,  9-H ) :   0.9858
B(  7-C , 10-N ) :   0.9163 B( 10-N , 11-H ) :   0.9838 B( 10-N , 12-C ) :   1.3325
B( 12-C , 13-N ) :   1.3544 B( 12-C , 16-N ) :   1.3372 B( 13-N , 14-H ) :   0.8820
B( 13-N , 15-H ) :   0.9860 B( 14-H , 25-O ) :   0.1013 B( 16-N , 17-H ) :   0.9614
B( 16-N , 18-H ) :   0.9694 B( 19-C , 20-H ) :   0.9761 B( 19-C , 21-H ) :   0.9454
B( 19-C , 22-C ) :   0.9311 B( 19-C , 31-C ) :   0.8957 B( 22-C , 23-C ) :   0.8617
B( 22-C , 26-O ) :   1.9051 B( 23-C , 24-O ) :   1.8813 B( 23-C , 25-O ) :   1.5749
B( 27-C , 28-H ) :   0.9918 B( 27-C , 29-C ) :   1.7782 B( 27-C , 36-C ) :   0.9643
B( 29-C , 30-H ) :   0.9606 B( 29-C , 31-C ) :   0.9524 B( 31-C , 32-C ) :   1.0127
B( 31-C , 40-C ) :   0.7996 B( 31-C , 41-O ) :  -0.1114 B( 31-C , 42-O ) :  -0.1361
B( 32-C , 33-H ) :   0.9355 B( 32-C , 34-C ) :   1.8396 B( 34-C , 35-H ) :   0.9786
B( 34-C , 36-C ) :   1.0066 B( 36-C , 37-H ) :   0.9908 B( 36-C , 38-O ) :   0.9288
B( 38-O , 39-H ) :   1.0251 B( 40-C , 41-O ) :   1.8171 B( 40-C , 42-O ) :   1.8266

E(0)                                       ...  -1154.792866225
E(0)                                       ...  -1154.792866225
E(CORR)(strong-pairs)                      ...     -4.638060459
E(CORR)(weak-pairs)                        ...     -0.012572548
E(CORR)(corrected)                         ...     -4.650633007
E(TOT)                                     ...  -1159.443499232
E(CCSD(T))                                 ...  -1159.655474032
FINAL SINGLE POINT ENERGY     -1159.655474032362

DIPOLE MOMENT
-------------
                                X             Y             Z
Electronic contribution:     22.48542      -7.15214      -0.11528
Nuclear contribution   :    -31.67995      10.71941       5.06507
                        -----------------------------------------
Total Dipole Moment    :     -9.19453       3.56727       4.94979
                        -----------------------------------------
Magnitude (a.u.)       :     11.03473
Magnitude (Debye)      :     28.04805

Rotational constants in cm-1:     0.015407     0.005218     0.004956
Rotational constants in MHz :   461.876169   156.420661   148.589882

                             ****ORCA TERMINATED NORMALLY****
TOTAL RUN TIME: 1 days 19 hours 53 minutes 50 seconds 841 msec
