                         Program Version 5.0.3 -  RELEASE  -
|  1> ! DLPNO-CCSD(T) cc-pVTZ cc-pVTZ/C TIGHTPNO TIGHTSCF
|  2> %maxcore 10000
|  3> %pal
|  4> nprocs 16
|  5> end
|  6> *xyz -1 1
|  7> H 4.321657106426 12.904823268615 8.261179110699
|  8> C 4.604406000000 11.906827000000 8.561939000000
|  9> H 5.197136000000 11.475461000000 7.746673000000
| 10> H 3.713794000000 11.280439000000 8.649609000000
| 11> C 5.378539000000 11.707879000000 9.846316000000
| 12> H 5.564943000000 10.635537000000 9.947302000000
| 13> H 4.754343000000 12.000417000000 10.695735000000
| 14> C 6.711912000000 12.433351000000 9.859827000000
| 15> H 6.619630000000 13.426886000000 10.300916000000
| 16> H 7.036614000000 12.580843000000 8.833027000000
| 17> N 7.802765000000 11.718940000000 10.492557000000
| 18> H 8.571154000000 11.448523000000 9.867233000000
| 19> C 8.071554000000 11.734272000000 11.780732000000
| 20> N 7.131367000000 12.105429000000 12.670754000000
| 21> H 6.170464000000 11.917086000000 12.451859000000
| 22> H 7.405730000000 12.024893000000 13.641433000000
| 23> N 9.274557000000 11.424479000000 12.217315000000
| 24> H 9.450486000000 11.486609000000 13.215962000000
| 25> H 10.001787000000 11.120928000000 11.578942000000
| 26> C 12.971417000000 10.689934000000 9.230108000000
| 27> H 13.604641000000 10.549593000000 10.090673000000
| 28> H 13.456783000000 10.963405000000 8.304137000000
| 29> C 11.651348000000 10.550141000000 9.326738000000
| 30> C 10.715199000000 10.991277000000 8.218973000000
| 31> O 11.137295000000 11.036634000000 7.037544000000
| 32> O 9.555471000000 11.334453000000 8.525229000000
| 33> O 11.056414000000 10.049825000000 10.453572000000
| 34> C 11.146839000000 8.507527000000 10.687662000000
| 35> H 10.637054000000 8.380074000000 11.643185000000
| 36> C 12.593527000000 8.261983000000 10.754363000000
| 37> H 13.108425000000 8.581130000000 11.645500000000
| 38> C 13.272808000000 7.930575000000 9.658798000000
| 39> C 12.565919000000 7.450986000000 8.473453000000
| 40> H 13.176291000000 7.148356000000 7.632545000000
| 41> C 11.246913000000 7.299333000000 8.464976000000
| 42> H 10.753447000000 6.792085000000 7.644601000000
| 43> C 10.373816000000 7.751567000000 9.590267000000
| 44> H 9.677753000000 8.501328000000 9.208982000000
| 45> O 9.661367000000 6.628879000000 10.046475000000
| 46> H 8.899781000000 6.924841000000 10.646529000000
| 47> C 14.783568000000 8.003028000000 9.611897000000
| 48> O 15.393183000000 8.193904000000 10.696393000000
| 49> O 15.323615000000 7.888607000000 8.503205000000
| 50> *
| 51>
| 52>                          ****END OF INPUT****

CARTESIAN COORDINATES (ANGSTROEM)
---------------------------------
  H      4.321657   12.904823    8.261179
  C      4.604406   11.906827    8.561939
  H      5.197136   11.475461    7.746673
  H      3.713794   11.280439    8.649609
  C      5.378539   11.707879    9.846316
  H      5.564943   10.635537    9.947302
  H      4.754343   12.000417   10.695735
  C      6.711912   12.433351    9.859827
  H      6.619630   13.426886   10.300916
  H      7.036614   12.580843    8.833027
  N      7.802765   11.718940   10.492557
  H      8.571154   11.448523    9.867233
  C      8.071554   11.734272   11.780732
  N      7.131367   12.105429   12.670754
  H      6.170464   11.917086   12.451859
  H      7.405730   12.024893   13.641433
  N      9.274557   11.424479   12.217315
  H      9.450486   11.486609   13.215962
  H     10.001787   11.120928   11.578942
  C     12.971417   10.689934    9.230108
  H     13.604641   10.549593   10.090673
  H     13.456783   10.963405    8.304137
  C     11.651348   10.550141    9.326738
  C     10.715199   10.991277    8.218973
  O     11.137295   11.036634    7.037544
  O      9.555471   11.334453    8.525229
  O     11.056414   10.049825   10.453572
  C     11.146839    8.507527   10.687662
  H     10.637054    8.380074   11.643185
  C     12.593527    8.261983   10.754363
  H     13.108425    8.581130   11.645500
  C     13.272808    7.930575    9.658798
  C     12.565919    7.450986    8.473453
  H     13.176291    7.148356    7.632545
  C     11.246913    7.299333    8.464976
  H     10.753447    6.792085    7.644601
  C     10.373816    7.751567    9.590267
  H      9.677753    8.501328    9.208982
  O      9.661367    6.628879   10.046475
  H      8.899781    6.924841   10.646529
  C     14.783568    8.003028    9.611897
  O     15.393183    8.193904   10.696393
  O     15.323615    7.888607    8.503205

 Total Charge           Charge          ....   -1
 Multiplicity           Mult            ....    1
 Number of Electrons    NEL             ....  174
 Basis Dimension        Dim             ....  970

ORBITAL ENERGIES
----------------

  NO   OCC          E(Eh)            E(eV)
   0   2.0000     -20.467676      -556.9538
   1   2.0000     -20.454158      -556.5859
   2   2.0000     -20.346481      -553.6559
   3   2.0000     -20.315770      -552.8202
   4   2.0000     -20.293118      -552.2038
   5   2.0000     -20.284054      -551.9572
   6   2.0000     -15.583687      -424.0537
   7   2.0000     -15.557052      -423.3289
   8   2.0000     -15.533886      -422.6985
   9   2.0000     -11.361305      -309.1568
  10   2.0000     -11.220061      -305.3134
  11   2.0000     -11.190302      -304.5036
  12   2.0000     -11.186697      -304.4055
  13   2.0000     -11.175961      -304.1134
  14   2.0000     -11.175029      -304.0880
  15   2.0000     -11.173973      -304.0593
  16   2.0000     -11.137383      -303.0636
  17   2.0000     -11.137275      -303.0607
  18   2.0000     -11.092327      -301.8376
  19   2.0000     -11.089954      -301.7730
  20   2.0000     -11.087949      -301.7184
  21   2.0000     -11.079640      -301.4923
  22   2.0000     -11.078374      -301.4579
  23   2.0000      -1.324937       -36.0534
  24   2.0000      -1.267140       -34.4806
  25   2.0000      -1.256718       -34.1970
  26   2.0000      -1.219844       -33.1936
  27   2.0000      -1.184372       -32.2284
  28   2.0000      -1.180128       -32.1129
  29   2.0000      -1.174987       -31.9730
  30   2.0000      -1.105320       -30.0773
  31   2.0000      -1.068606       -29.0782
  32   2.0000      -1.025884       -27.9157
  33   2.0000      -0.998944       -27.1827
  34   2.0000      -0.908628       -24.7250
  35   2.0000      -0.906073       -24.6555
  36   2.0000      -0.887339       -24.1457
  37   2.0000      -0.857202       -23.3257
  38   2.0000      -0.825243       -22.4560
  39   2.0000      -0.787286       -21.4231
  40   2.0000      -0.752853       -20.4862
  41   2.0000      -0.738358       -20.0918
  42   2.0000      -0.716490       -19.4967
  43   2.0000      -0.698040       -18.9946
  44   2.0000      -0.689807       -18.7706
  45   2.0000      -0.656913       -17.8755
  46   2.0000      -0.640581       -17.4311
  47   2.0000      -0.612519       -16.6675
  48   2.0000      -0.604368       -16.4457
  49   2.0000      -0.597176       -16.2500
  50   2.0000      -0.594477       -16.1765
  51   2.0000      -0.578782       -15.7495
  52   2.0000      -0.560035       -15.2393
  53   2.0000      -0.556229       -15.1358
  54   2.0000      -0.541488       -14.7346
  55   2.0000      -0.530468       -14.4348
  56   2.0000      -0.517460       -14.0808
  57   2.0000      -0.501399       -13.6438
  58   2.0000      -0.490440       -13.3456
  59   2.0000      -0.483599       -13.1594
  60   2.0000      -0.475190       -12.9306
  61   2.0000      -0.470549       -12.8043
  62   2.0000      -0.462052       -12.5731
  63   2.0000      -0.460754       -12.5378
  64   2.0000      -0.445828       -12.1316
  65   2.0000      -0.438225       -11.9247
  66   2.0000      -0.433472       -11.7954
  67   2.0000      -0.430081       -11.7031
  68   2.0000      -0.419767       -11.4224
  69   2.0000      -0.415261       -11.2998
  70   2.0000      -0.408765       -11.1231
  71   2.0000      -0.399377       -10.8676
  72   2.0000      -0.386267       -10.5108
  73   2.0000      -0.376977       -10.2581
  74   2.0000      -0.365840        -9.9550
  75   2.0000      -0.356011        -9.6875
  76   2.0000      -0.348859        -9.4929
  77   2.0000      -0.323401        -8.8002
  78   2.0000      -0.285652        -7.7730
  79   2.0000      -0.268445        -7.3048
  80   2.0000      -0.244571        -6.6551
  81   2.0000      -0.237941        -6.4747
  82   2.0000      -0.219118        -5.9625
  83   2.0000      -0.208901        -5.6845
  84   2.0000      -0.202915        -5.5216
  85   2.0000      -0.194699        -5.2980
  86   2.0000      -0.175070        -4.7639
  87   0.0000       0.139463         3.7950
  88   0.0000       0.169071         4.6006
  89   0.0000       0.195050         5.3076
  90   0.0000       0.200244         5.4489
  91   0.0000       0.216720         5.8972

MULLIKEN ATOMIC CHARGES
-----------------------
   0 H :    0.101451
   1 C :   -0.304113
   2 H :    0.117775
   3 H :    0.089384
   4 C :   -0.173891
   5 H :    0.112844
   6 H :    0.061041
   7 C :   -0.097347
   8 H :    0.104030
   9 H :    0.151504
  10 N :   -0.196581
  11 H :    0.267677
  12 C :    0.314458
  13 N :   -0.292043
  14 H :    0.207160
  15 H :    0.173268
  16 N :   -0.282810
  17 H :    0.166703
  18 H :    0.296736
  19 C :   -0.370740
  20 H :    0.175933
  21 H :    0.177040
  22 C :    0.140635
  23 C :    0.397576
  24 O :   -0.558027
  25 O :   -0.608056
  26 O :   -0.509848
  27 C :    0.138609
  28 H :    0.077102
  29 C :   -0.211448
  30 H :    0.155873
  31 C :   -0.012420
  32 C :   -0.135454
  33 H :    0.174952
  34 C :   -0.187403
  35 H :    0.124727
  36 C :    0.144482
  37 H :    0.081896
  38 O :   -0.428913
  39 H :    0.207450
  40 C :    0.390819
  41 O :   -0.610672
  42 O :   -0.571360
Sum of atomic charges:   -1.0000000

LOEWDIN ATOMIC CHARGES
----------------------
   0 H :   -0.036965
   1 C :    0.113560
   2 H :   -0.013105
   3 H :   -0.027073
   4 C :    0.030528
   5 H :   -0.018458
   6 H :   -0.042324
   7 C :    0.026256
   8 H :   -0.031093
   9 H :   -0.001299
  10 N :    0.444985
  11 H :   -0.158549
  12 C :   -0.279970
  13 N :    0.445317
  14 H :   -0.070634
  15 H :   -0.066289
  16 N :    0.492110
  17 H :   -0.061479
  18 H :   -0.095053
  19 C :    0.125465
  20 H :   -0.040244
  21 H :   -0.028061
  22 C :   -0.283520
  23 C :   -0.651327
  24 O :   -0.060025
  25 O :   -0.004574
  26 O :    0.243958
  27 C :   -0.027023
  28 H :   -0.039742
  29 C :    0.023646
  30 H :   -0.038639
  31 C :   -0.047036
  32 C :    0.061556
  33 H :   -0.018695
  34 C :    0.024151
  35 H :   -0.040056
  36 C :   -0.149191
  37 H :   -0.032574
  38 O :    0.289679
  39 H :   -0.140420
  40 C :   -0.664902
  41 O :   -0.104095
  42 O :   -0.048796

  Mayer bond orders larger than 0.100000
B(  0-H ,  1-C ) :   0.9795 B(  1-C ,  2-H ) :   0.9811 B(  1-C ,  3-H ) :   0.9862
B(  1-C ,  4-C ) :   0.9625 B(  4-C ,  5-H ) :   0.9747 B(  4-C ,  6-H ) :   0.9820
B(  4-C ,  7-C ) :   0.9287 B(  7-C ,  8-H ) :   0.9837 B(  7-C ,  9-H ) :   0.9730
B(  7-C , 10-N ) :   0.9312 B( 10-N , 11-H ) :   0.8021 B( 10-N , 12-C ) :   1.4790
B( 11-H , 25-O ) :   0.2057 B( 12-C , 13-N ) :   1.2201 B( 12-C , 16-N ) :   1.4120
B( 13-N , 14-H ) :   0.9537 B( 13-N , 15-H ) :   0.9725 B( 16-N , 17-H ) :   0.9727
B( 16-N , 18-H ) :   0.8453 B( 19-C , 20-H ) :   0.9632 B( 19-C , 21-H ) :   0.9428
B( 19-C , 22-C ) :   1.8000 B( 22-C , 23-C ) :   0.8962 B( 22-C , 26-O ) :   0.9292
B( 23-C , 24-O ) :   1.9390 B( 23-C , 25-O ) :   1.5487 B( 26-O , 27-C ) :   0.8049
B( 27-C , 28-H ) :   1.0095 B( 27-C , 29-C ) :   0.9828 B( 27-C , 36-C ) :   0.9197
B( 29-C , 30-H ) :   0.9465 B( 29-C , 31-C ) :   1.7814 B( 31-C , 32-C ) :   1.0347
B( 31-C , 40-C ) :   0.8588 B( 31-C , 41-O ) :  -0.1467 B( 31-C , 42-O ) :  -0.1370
B( 32-C , 33-H ) :   0.9491 B( 32-C , 34-C ) :   1.7947 B( 34-C , 35-H ) :   0.9785
B( 34-C , 36-C ) :   0.9519 B( 36-C , 37-H ) :   0.9972 B( 36-C , 38-O ) :   0.9956
B( 38-O , 39-H ) :   0.9909 B( 40-C , 41-O ) :   1.8420 B( 40-C , 42-O ) :   1.8784

E(0)                                       ...  -1154.666570487
E(0)                                       ...  -1154.666570487
E(CORR)(strong-pairs)                      ...     -4.387309561
E(CORR)(weak-pairs)                        ...     -0.007916283
E(CORR)(corrected)                         ...     -4.395225844
E(TOT)                                     ...  -1159.061796331
E(CCSD(T))                                 ...  -1159.255907157
FINAL SINGLE POINT ENERGY     -1159.255907157015

DIPOLE MOMENT
-------------
                                X             Y             Z
Electronic contribution:     24.42613      -9.01811      -0.18882
Nuclear contribution   :    -35.13857      12.45445       5.87060
                        -----------------------------------------
Total Dipole Moment    :    -10.71244       3.43634       5.68179
                        -----------------------------------------
Magnitude (a.u.)       :     12.60347
Magnitude (Debye)      :     32.03547

Rotational constants in cm-1:     0.015301     0.004186     0.004091
Rotational constants in MHz :   458.721875   125.504926   122.653351

                             ****ORCA TERMINATED NORMALLY****
TOTAL RUN TIME: 0 days 2 hours 7 minutes 56 seconds 366 msec
