                         Program Version 5.0.3 -  RELEASE  -
|  1> ! DLPNO-CCSD(T) cc-pVQZ cc-pVQZ/C TIGHTPNO TIGHTSCF
|  2> %maxcore 10000
|  3> %pal
|  4> nprocs 32
|  5> end
|  6> *xyz -1 1
|  7> H 4.850706887806 12.930045247481 7.689209185846
|  8> C 5.346426000000 11.988347000000 7.873239000000
|  9> H 5.819013000000 11.687329000000 6.932932000000
| 10> H 4.605060000000 11.216891000000 8.099044000000
| 11> C 6.387662000000 11.928182000000 8.970022000000
| 12> H 5.903592000000 12.002629000000 9.947034000000
| 13> H 7.075543000000 12.768916000000 8.881942000000
| 14> C 7.142698000000 10.602975000000 8.882104000000
| 15> H 7.893049000000 10.644855000000 8.097116000000
| 16> H 6.447551000000 9.809643000000 8.614145000000
| 17> N 7.760256000000 10.162289000000 10.124023000000
| 18> H 7.529732000000 9.239758000000 10.491614000000
| 19> C 8.667751000000 10.821990000000 10.824213000000
| 20> N 9.195685000000 11.962027000000 10.351146000000
| 21> H 9.474942000000 11.853049000000 9.367742000000
| 22> H 9.974131000000 12.288525000000 10.900438000000
| 23> N 9.004296000000 10.351841000000 12.015632000000
| 24> H 9.686201000000 10.828680000000 12.591580000000
| 25> H 8.666285000000 9.433300000000 12.271676000000
| 26> C 13.480725000000 10.218818000000 9.016925000000
| 27> H 13.998468000000 9.965429000000 9.928720000000
| 28> H 14.087631000000 10.443658000000 8.155052000000
| 29> C 12.149562000000 10.301016000000 8.989122000000
| 30> C 11.430055000000 10.713495000000 7.705600000000
| 31> O 12.052035000000 10.687461000000 6.637098000000
| 32> O 10.210655000000 11.055324000000 7.831657000000
| 33> O 11.397481000000 9.926419000000 10.054930000000
| 34> C 11.196621000000 8.265291000000 10.283546000000
| 35> H 10.787330000000 8.222793000000 11.291482000000
| 36> C 12.545622000000 7.774268000000 10.157422000000
| 37> H 13.219254000000 7.868103000000 10.987898000000
| 38> C 13.046194000000 7.550860000000 8.940683000000
| 39> C 12.147591000000 7.407513000000 7.799574000000
| 40> H 12.600487000000 7.221904000000 6.836444000000
| 41> C 10.828881000000 7.415141000000 7.959017000000
| 42> H 10.176171000000 7.172297000000 7.130177000000
| 43> C 10.176306000000 7.816570000000 9.239032000000
| 44> H 9.622480000000 8.731720000000 9.038147000000
| 45> O 9.285036000000 6.800543000000 9.665263000000
| 46> H 8.720506000000 7.129954000000 10.415313000000
| 47> C 14.527376000000 7.301884000000 8.753521000000
| 48> O 15.220167000000 7.158362000000 9.782438000000
| 49> O 14.943333000000 7.275179000000 7.570590000000
| 50> *
| 51>
| 52>                          ****END OF INPUT****

CARTESIAN COORDINATES (ANGSTROEM)
---------------------------------
  H      4.850707   12.930045    7.689209
  C      5.346426   11.988347    7.873239
  H      5.819013   11.687329    6.932932
  H      4.605060   11.216891    8.099044
  C      6.387662   11.928182    8.970022
  H      5.903592   12.002629    9.947034
  H      7.075543   12.768916    8.881942
  C      7.142698   10.602975    8.882104
  H      7.893049   10.644855    8.097116
  H      6.447551    9.809643    8.614145
  N      7.760256   10.162289   10.124023
  H      7.529732    9.239758   10.491614
  C      8.667751   10.821990   10.824213
  N      9.195685   11.962027   10.351146
  H      9.474942   11.853049    9.367742
  H      9.974131   12.288525   10.900438
  N      9.004296   10.351841   12.015632
  H      9.686201   10.828680   12.591580
  H      8.666285    9.433300   12.271676
  C     13.480725   10.218818    9.016925
  H     13.998468    9.965429    9.928720
  H     14.087631   10.443658    8.155052
  C     12.149562   10.301016    8.989122
  C     11.430055   10.713495    7.705600
  O     12.052035   10.687461    6.637098
  O     10.210655   11.055324    7.831657
  O     11.397481    9.926419   10.054930
  C     11.196621    8.265291   10.283546
  H     10.787330    8.222793   11.291482
  C     12.545622    7.774268   10.157422
  H     13.219254    7.868103   10.987898
  C     13.046194    7.550860    8.940683
  C     12.147591    7.407513    7.799574
  H     12.600487    7.221904    6.836444
  C     10.828881    7.415141    7.959017
  H     10.176171    7.172297    7.130177
  C     10.176306    7.816570    9.239032
  H      9.622480    8.731720    9.038147
  O      9.285036    6.800543    9.665263
  H      8.720506    7.129954   10.415313
  C     14.527376    7.301884    8.753521
  O     15.220167    7.158362    9.782438
  O     14.943333    7.275179    7.570590

 Total Charge           Charge          ....   -1
 Multiplicity           Mult            ....    1
 Number of Electrons    NEL             ....  174
 Basis Dimension        Dim             .... 1865

ORBITAL ENERGIES
----------------

  NO   OCC          E(Eh)            E(eV)
   0   2.0000     -20.487091      -557.4821
   1   2.0000     -20.433918      -556.0352
   2   2.0000     -20.338442      -553.4372
   3   2.0000     -20.320966      -552.9616
   4   2.0000     -20.295739      -552.2751
   5   2.0000     -20.294741      -552.2480
   6   2.0000     -15.581865      -424.0041
   7   2.0000     -15.573672      -423.7812
   8   2.0000     -15.531067      -422.6218
   9   2.0000     -11.366064      -309.2863
  10   2.0000     -11.219135      -305.2882
  11   2.0000     -11.192383      -304.5602
  12   2.0000     -11.184001      -304.3321
  13   2.0000     -11.177608      -304.1582
  14   2.0000     -11.172835      -304.0283
  15   2.0000     -11.168922      -303.9218
  16   2.0000     -11.144459      -303.2561
  17   2.0000     -11.127192      -302.7863
  18   2.0000     -11.098955      -302.0179
  19   2.0000     -11.097658      -301.9826
  20   2.0000     -11.095582      -301.9261
  21   2.0000     -11.076809      -301.4153
  22   2.0000     -11.071736      -301.2772
  23   2.0000      -1.328033       -36.1376
  24   2.0000      -1.282253       -34.8919
  25   2.0000      -1.233149       -33.5557
  26   2.0000      -1.204825       -32.7850
  27   2.0000      -1.195313       -32.5261
  28   2.0000      -1.182788       -32.1853
  29   2.0000      -1.164030       -31.6749
  30   2.0000      -1.107906       -30.1477
  31   2.0000      -1.075472       -29.2651
  32   2.0000      -1.021445       -27.7949
  33   2.0000      -1.011219       -27.5167
  34   2.0000      -0.909111       -24.7382
  35   2.0000      -0.903106       -24.5748
  36   2.0000      -0.897401       -24.4195
  37   2.0000      -0.857108       -23.3231
  38   2.0000      -0.823025       -22.3957
  39   2.0000      -0.775726       -21.1086
  40   2.0000      -0.751833       -20.4584
  41   2.0000      -0.742876       -20.2147
  42   2.0000      -0.725000       -19.7283
  43   2.0000      -0.702850       -19.1255
  44   2.0000      -0.680833       -18.5264
  45   2.0000      -0.640487       -17.4285
  46   2.0000      -0.629520       -17.1301
  47   2.0000      -0.611048       -16.6275
  48   2.0000      -0.608123       -16.5479
  49   2.0000      -0.605135       -16.4666
  50   2.0000      -0.596554       -16.2331
  51   2.0000      -0.577831       -15.7236
  52   2.0000      -0.565746       -15.3947
  53   2.0000      -0.553095       -15.0505
  54   2.0000      -0.530467       -14.4347
  55   2.0000      -0.523556       -14.2467
  56   2.0000      -0.508067       -13.8252
  57   2.0000      -0.500899       -13.6302
  58   2.0000      -0.496185       -13.5019
  59   2.0000      -0.482077       -13.1180
  60   2.0000      -0.479980       -13.0609
  61   2.0000      -0.475439       -12.9374
  62   2.0000      -0.469718       -12.7817
  63   2.0000      -0.457768       -12.4565
  64   2.0000      -0.448201       -12.1962
  65   2.0000      -0.438246       -11.9253
  66   2.0000      -0.435747       -11.8573
  67   2.0000      -0.427256       -11.6262
  68   2.0000      -0.416132       -11.3235
  69   2.0000      -0.409704       -11.1486
  70   2.0000      -0.402316       -10.9476
  71   2.0000      -0.399777       -10.8785
  72   2.0000      -0.388168       -10.5626
  73   2.0000      -0.378701       -10.3050
  74   2.0000      -0.374524       -10.1913
  75   2.0000      -0.360200        -9.8015
  76   2.0000      -0.355586        -9.6760
  77   2.0000      -0.331940        -9.0325
  78   2.0000      -0.286235        -7.7889
  79   2.0000      -0.260743        -7.0952
  80   2.0000      -0.242335        -6.5943
  81   2.0000      -0.239401        -6.5144
  82   2.0000      -0.224778        -6.1165
  83   2.0000      -0.217613        -5.9216
  84   2.0000      -0.200628        -5.4594
  85   2.0000      -0.195956        -5.3322
  86   2.0000      -0.179974        -4.8973
  87   0.0000       0.115389         3.1399
  88   0.0000       0.152593         4.1523
  89   0.0000       0.160571         4.3693
  90   0.0000       0.181206         4.9309
  91   0.0000       0.187994         5.1156

MULLIKEN ATOMIC CHARGES
-----------------------
   0 H :    0.096891
   1 C :   -0.220456
   2 H :    0.082970
   3 H :    0.044036
   4 C :   -0.117656
   5 H :    0.056530
   6 H :    0.094165
   7 C :   -0.030475
   8 H :    0.126048
   9 H :    0.108970
  10 N :   -0.264335
  11 H :    0.154858
  12 C :    0.662498
  13 N :   -0.348163
  14 H :    0.271685
  15 H :    0.143469
  16 N :   -0.379703
  17 H :    0.211824
  18 H :    0.176523
  19 C :   -0.216684
  20 H :    0.140469
  21 H :    0.155552
  22 C :    0.020049
  23 C :    0.647861
  24 O :   -0.617668
  25 O :   -0.746770
  26 O :   -0.620580
  27 C :    0.175519
  28 H :    0.105010
  29 C :   -0.178485
  30 H :    0.144079
  31 C :   -0.149584
  32 C :   -0.150144
  33 H :    0.198670
  34 C :   -0.142277
  35 H :    0.134225
  36 C :    0.171997
  37 H :    0.041035
  38 O :   -0.488042
  39 H :    0.198255
  40 C :    0.676077
  41 O :   -0.690011
  42 O :   -0.678232
Sum of atomic charges:   -1.0000000

LOEWDIN ATOMIC CHARGES
----------------------
   0 H :   -0.101379
   1 C :    0.313197
   2 H :   -0.077749
   3 H :   -0.092192
   4 C :    0.145136
   5 H :   -0.091008
   6 H :   -0.082963
   7 C :    0.095914
   8 H :   -0.080270
   9 H :   -0.076970
  10 N :    0.687249
  11 H :   -0.189136
  12 C :   -0.507008
  13 N :    0.812451
  14 H :   -0.249462
  15 H :   -0.205472
  16 N :    0.833038
  17 H :   -0.181033
  18 H :   -0.196950
  19 C :    0.267951
  20 H :   -0.114540
  21 H :   -0.102301
  22 C :   -0.506709
  23 C :   -1.099925
  24 O :    0.217434
  25 O :    0.167172
  26 O :    0.415216
  27 C :   -0.016687
  28 H :   -0.103215
  29 C :    0.084871
  30 H :   -0.105750
  31 C :   -0.078859
  32 C :    0.142022
  33 H :   -0.078908
  34 C :    0.115516
  35 H :   -0.106745
  36 C :   -0.255300
  37 H :   -0.102542
  38 O :    0.677488
  39 H :   -0.405197
  40 C :   -1.096550
  41 O :    0.161931
  42 O :    0.168231

  Mayer bond orders larger than 0.100000
B(  0-H ,  1-C ) :   0.9973 B(  1-C ,  2-H ) :   0.9852 B(  1-C ,  3-H ) :   0.9934
B(  1-C ,  4-C ) :   0.9554 B(  4-C ,  5-H ) :   0.9910 B(  4-C ,  6-H ) :   0.9796
B(  4-C ,  7-C ) :   0.9650 B(  7-C ,  8-H ) :   0.9483 B(  7-C ,  9-H ) :   0.9853
B(  7-C , 10-N ) :   0.9179 B( 10-N , 11-H ) :   0.9887 B( 10-N , 12-C ) :   1.3276
B( 12-C , 13-N ) :   1.3410 B( 12-C , 16-N ) :   1.3192 B( 13-N , 14-H ) :   0.8499
B( 13-N , 15-H ) :   1.0045 B( 14-H , 25-O ) :   0.1487 B( 16-N , 17-H ) :   0.9670
B( 16-N , 18-H ) :   0.9800 B( 19-C , 20-H ) :   0.9998 B( 19-C , 21-H ) :   0.9512
B( 19-C , 22-C ) :   1.8344 B( 22-C , 23-C ) :   0.8516 B( 22-C , 26-O ) :   1.0073
B( 23-C , 24-O ) :   1.8971 B( 23-C , 25-O ) :   1.5063 B( 26-O , 27-C ) :   0.6876
B( 27-C , 28-H ) :   0.9842 B( 27-C , 29-C ) :   1.0336 B( 27-C , 36-C ) :   0.9260
B( 29-C , 30-H ) :   0.9550 B( 29-C , 31-C ) :   1.7346 B( 31-C , 32-C ) :   1.0466
B( 31-C , 40-C ) :   0.7938 B( 31-C , 41-O ) :  -0.1713 B( 31-C , 42-O ) :  -0.1575
B( 32-C , 33-H ) :   0.9369 B( 32-C , 34-C ) :   1.7943 B( 34-C , 35-H ) :   0.9697
B( 34-C , 36-C ) :   0.9777 B( 36-C , 37-H ) :   0.9896 B( 36-C , 38-O ) :   0.9195
B( 38-O , 39-H ) :   1.0161 B( 40-C , 41-O ) :   1.8185 B( 40-C , 42-O ) :   1.8077

E(0)                                       ...  -1154.714251772
E(0)                                       ...  -1154.714251772
E(CORR)(strong-pairs)                      ...     -4.651266742
E(CORR)(weak-pairs)                        ...     -0.012805946
E(CORR)(corrected)                         ...     -4.664072688
E(TOT)                                     ...  -1159.378324461
E(CCSD(T))                                 ...  -1159.595393868
FINAL SINGLE POINT ENERGY     -1159.595393867816

DIPOLE MOMENT
-------------
                                X             Y             Z
Electronic contribution:     21.84651      -9.68593       0.48902
Nuclear contribution   :    -31.58108      12.62353       4.98835
                        -----------------------------------------
Total Dipole Moment    :     -9.73457       2.93760       5.47737
                        -----------------------------------------
Magnitude (a.u.)       :     11.54958
Magnitude (Debye)      :     29.35671

Rotational constants in cm-1:     0.016088     0.005156     0.004896
Rotational constants in MHz :   482.312983   154.564836   146.772188

                             ****ORCA TERMINATED NORMALLY****
TOTAL RUN TIME: 1 days 2 hours 49 minutes 43 seconds 598 msec
