                         Program Version 5.0.3 -  RELEASE  -
|  1> ! DLPNO-CCSD(T) cc-pVQZ cc-pVQZ/C TIGHTPNO TIGHTSCF
|  2> %maxcore 10000
|  3> %pal
|  4> nprocs 16
|  5> end
|  6> *xyz -1 1
|  7> H 4.327180869242 12.918508148088 8.298778434077
|  8> C 4.615993000000 11.944336000000 8.664806000000
|  9> H 5.138192000000 11.430530000000 7.853092000000
| 10> H 3.716688000000 11.360042000000 8.854892000000
| 11> C 5.487603000000 11.843433000000 9.931391000000
| 12> H 5.057652000000 11.097993000000 10.602974000000
| 13> H 5.510596000000 12.783618000000 10.482553000000
| 14> C 6.882980000000 11.448883000000 9.529757000000
| 15> H 7.271310000000 12.225406000000 8.869678000000
| 16> H 6.830050000000 10.532118000000 8.944906000000
| 17> N 7.904584000000 11.196449000000 10.534633000000
| 18> H 8.771557000000 10.976197000000 10.047701000000
| 19> C 8.096940000000 11.616991000000 11.768281000000
| 20> N 7.101201000000 12.002341000000 12.594746000000
| 21> H 6.199210000000 11.588095000000 12.450849000000
| 22> H 7.396085000000 12.067521000000 13.561656000000
| 23> N 9.331381000000 11.679933000000 12.226567000000
| 24> H 9.475504000000 11.803926000000 13.224908000000
| 25> H 10.095709000000 11.366353000000 11.645908000000
| 26> C 13.100505000000 10.089732000000 9.269804000000
| 27> H 13.602674000000 10.531468000000 10.128736000000
| 28> H 13.601394000000 10.478550000000 8.386425000000
| 29> C 11.690086000000 10.601327000000 9.368410000000
| 30> C 10.756724000000 10.985777000000 8.181964000000
| 31> O 11.216558000000 11.072865000000 7.027178000000
| 32> O 9.581914000000 11.232388000000 8.476949000000
| 33> O 11.216126000000 10.763856000000 10.462554000000
| 34> C 11.201097000000 8.044561000000 10.842912000000
| 35> H 10.654234000000 8.107740000000 11.771196000000
| 36> C 12.494048000000 8.307108000000 10.799960000000
| 37> H 13.036138000000 8.604872000000 11.682912000000
| 38> C 13.208453000000 8.502246000000 9.506997000000
| 39> C 12.543655000000 7.672960000000 8.435843000000
| 40> H 13.169604000000 7.315769000000 7.625673000000
| 41> C 11.267059000000 7.322894000000 8.492970000000
| 42> H 10.820144000000 6.735778000000 7.699067000000
| 43> C 10.385010000000 7.672247000000 9.645186000000
| 44> H 9.746387000000 8.519425000000 9.355946000000
| 45> O 9.557077000000 6.571298000000 9.933614000000
| 46> H 8.861058000000 6.871424000000 10.603517000000
| 47> C 14.735286000000 8.171176000000 9.569384000000
| 48> O 15.304152000000 8.208381000000 10.690487000000
| 49> O 15.304673000000 7.924526000000 8.499763000000
| 50> *
| 51>
| 52>                          ****END OF INPUT****

CARTESIAN COORDINATES (ANGSTROEM)
---------------------------------
  H      4.327181   12.918508    8.298778
  C      4.615993   11.944336    8.664806
  H      5.138192   11.430530    7.853092
  H      3.716688   11.360042    8.854892
  C      5.487603   11.843433    9.931391
  H      5.057652   11.097993   10.602974
  H      5.510596   12.783618   10.482553
  C      6.882980   11.448883    9.529757
  H      7.271310   12.225406    8.869678
  H      6.830050   10.532118    8.944906
  N      7.904584   11.196449   10.534633
  H      8.771557   10.976197   10.047701
  C      8.096940   11.616991   11.768281
  N      7.101201   12.002341   12.594746
  H      6.199210   11.588095   12.450849
  H      7.396085   12.067521   13.561656
  N      9.331381   11.679933   12.226567
  H      9.475504   11.803926   13.224908
  H     10.095709   11.366353   11.645908
  C     13.100505   10.089732    9.269804
  H     13.602674   10.531468   10.128736
  H     13.601394   10.478550    8.386425
  C     11.690086   10.601327    9.368410
  C     10.756724   10.985777    8.181964
  O     11.216558   11.072865    7.027178
  O      9.581914   11.232388    8.476949
  O     11.216126   10.763856   10.462554
  C     11.201097    8.044561   10.842912
  H     10.654234    8.107740   11.771196
  C     12.494048    8.307108   10.799960
  H     13.036138    8.604872   11.682912
  C     13.208453    8.502246    9.506997
  C     12.543655    7.672960    8.435843
  H     13.169604    7.315769    7.625673
  C     11.267059    7.322894    8.492970
  H     10.820144    6.735778    7.699067
  C     10.385010    7.672247    9.645186
  H      9.746387    8.519425    9.355946
  O      9.557077    6.571298    9.933614
  H      8.861058    6.871424   10.603517
  C     14.735286    8.171176    9.569384
  O     15.304152    8.208381   10.690487
  O     15.304673    7.924526    8.499763

 Total Charge           Charge          ....   -1
 Multiplicity           Mult            ....    1
 Number of Electrons    NEL             ....  174
 Basis Dimension        Dim             .... 1865

ORBITAL ENERGIES
----------------

  NO   OCC          E(Eh)            E(eV)
   0   2.0000     -20.453336      -556.5636
   1   2.0000     -20.441068      -556.2297
   2   2.0000     -20.362789      -554.0997
   3   2.0000     -20.350019      -553.7522
   4   2.0000     -20.296723      -552.3019
   5   2.0000     -20.294081      -552.2300
   6   2.0000     -15.579528      -423.9405
   7   2.0000     -15.549908      -423.1345
   8   2.0000     -15.537354      -422.7929
   9   2.0000     -11.361508      -309.1623
  10   2.0000     -11.212751      -305.1145
  11   2.0000     -11.212216      -305.0999
  12   2.0000     -11.198383      -304.7235
  13   2.0000     -11.192246      -304.5565
  14   2.0000     -11.177207      -304.1473
  15   2.0000     -11.161469      -303.7190
  16   2.0000     -11.144266      -303.2509
  17   2.0000     -11.107693      -302.2557
  18   2.0000     -11.105298      -302.1905
  19   2.0000     -11.089596      -301.7632
  20   2.0000     -11.088211      -301.7256
  21   2.0000     -11.087084      -301.6949
  22   2.0000     -11.084281      -301.6186
  23   2.0000      -1.322623       -35.9904
  24   2.0000      -1.304393       -35.4943
  25   2.0000      -1.252261       -34.0758
  26   2.0000      -1.245964       -33.9044
  27   2.0000      -1.187771       -32.3209
  28   2.0000      -1.187367       -32.3099
  29   2.0000      -1.167995       -31.7828
  30   2.0000      -1.136768       -30.9330
  31   2.0000      -1.075807       -29.2742
  32   2.0000      -1.026110       -27.9219
  33   2.0000      -1.006518       -27.3887
  34   2.0000      -0.909768       -24.7561
  35   2.0000      -0.905581       -24.6421
  36   2.0000      -0.886633       -24.1265
  37   2.0000      -0.832886       -22.6640
  38   2.0000      -0.826014       -22.4770
  39   2.0000      -0.793046       -21.5799
  40   2.0000      -0.741269       -20.1709
  41   2.0000      -0.737880       -20.0787
  42   2.0000      -0.710041       -19.3212
  43   2.0000      -0.706328       -19.2202
  44   2.0000      -0.674361       -18.3503
  45   2.0000      -0.653310       -17.7775
  46   2.0000      -0.641887       -17.4666
  47   2.0000      -0.623997       -16.9798
  48   2.0000      -0.600657       -16.3447
  49   2.0000      -0.592877       -16.1330
  50   2.0000      -0.579375       -15.7656
  51   2.0000      -0.573539       -15.6068
  52   2.0000      -0.563472       -15.3328
  53   2.0000      -0.556040       -15.1306
  54   2.0000      -0.530578       -14.4378
  55   2.0000      -0.522947       -14.2301
  56   2.0000      -0.514302       -13.9949
  57   2.0000      -0.506535       -13.7835
  58   2.0000      -0.505182       -13.7467
  59   2.0000      -0.501208       -13.6386
  60   2.0000      -0.472238       -12.8502
  61   2.0000      -0.470956       -12.8154
  62   2.0000      -0.455163       -12.3856
  63   2.0000      -0.454137       -12.3577
  64   2.0000      -0.452978       -12.3262
  65   2.0000      -0.452121       -12.3028
  66   2.0000      -0.446780       -12.1575
  67   2.0000      -0.438697       -11.9376
  68   2.0000      -0.419921       -11.4266
  69   2.0000      -0.414577       -11.2812
  70   2.0000      -0.410762       -11.1774
  71   2.0000      -0.406273       -11.0552
  72   2.0000      -0.390495       -10.6259
  73   2.0000      -0.385210       -10.4821
  74   2.0000      -0.363011        -9.8780
  75   2.0000      -0.353621        -9.6225
  76   2.0000      -0.347074        -9.4444
  77   2.0000      -0.337190        -9.1754
  78   2.0000      -0.308030        -8.3819
  79   2.0000      -0.284905        -7.7527
  80   2.0000      -0.261956        -7.1282
  81   2.0000      -0.257919        -7.0183
  82   2.0000      -0.242956        -6.6112
  83   2.0000      -0.224231        -6.1016
  84   2.0000      -0.212853        -5.7920
  85   2.0000      -0.200398        -5.4531
  86   2.0000      -0.197186        -5.3657
  87   0.0000       0.118735         3.2309
  88   0.0000       0.148335         4.0364
  89   0.0000       0.169891         4.6230
  90   0.0000       0.177938         4.8419
  91   0.0000       0.194054         5.2805

MULLIKEN ATOMIC CHARGES
-----------------------
   0 H :    0.086864
   1 C :   -0.219015
   2 H :    0.085515
   3 H :    0.066966
   4 C :   -0.129679
   5 H :    0.035216
   6 H :    0.063023
   7 C :    0.030596
   8 H :    0.114387
   9 H :    0.107881
  10 N :   -0.379419
  11 H :    0.311445
  12 C :    0.592117
  13 N :   -0.404259
  14 H :    0.210793
  15 H :    0.176373
  16 N :   -0.406838
  17 H :    0.172012
  18 H :    0.302464
  19 C :   -0.122109
  20 H :    0.100149
  21 H :    0.126055
  22 C :    0.320592
  23 C :    0.548281
  24 O :   -0.612929
  25 O :   -0.656304
  26 O :   -0.538327
  27 C :   -0.166627
  28 H :    0.074058
  29 C :   -0.152172
  30 H :    0.164629
  31 C :   -0.083837
  32 C :   -0.165814
  33 H :    0.202865
  34 C :   -0.212232
  35 H :    0.141219
  36 C :    0.233924
  37 H :    0.004935
  38 O :   -0.499258
  39 H :    0.228255
  40 C :    0.607195
  41 O :   -0.695641
  42 O :   -0.663347
Sum of atomic charges:   -1.0000000

LOEWDIN ATOMIC CHARGES
----------------------
   0 H :   -0.102196
   1 C :    0.340511
   2 H :   -0.079073
   3 H :   -0.096380
   4 C :    0.137588
   5 H :   -0.095315
   6 H :   -0.094216
   7 C :    0.068626
   8 H :   -0.064248
   9 H :   -0.066880
  10 N :    0.692965
  11 H :   -0.278002
  12 C :   -0.514539
  13 N :    0.795010
  14 H :   -0.214123
  15 H :   -0.200790
  16 N :    0.840962
  17 H :   -0.193898
  18 H :   -0.309486
  19 C :    0.214989
  20 H :   -0.071511
  21 H :   -0.074360
  22 C :   -0.470325
  23 C :   -1.110292
  24 O :    0.199406
  25 O :    0.269270
  26 O :    0.478892
  27 C :    0.084018
  28 H :   -0.129408
  29 C :    0.117450
  30 H :   -0.091974
  31 C :   -0.167325
  32 C :    0.141673
  33 H :   -0.088556
  34 C :    0.097234
  35 H :   -0.106896
  36 C :   -0.309816
  37 H :   -0.094683
  38 O :    0.655710
  39 H :   -0.353073
  40 C :   -1.086811
  41 O :    0.139451
  42 O :    0.190424

  Mayer bond orders larger than 0.100000
B(  0-H ,  1-C ) :   0.9955 B(  1-C ,  2-H ) :   0.9918 B(  1-C ,  3-H ) :   0.9956
B(  1-C ,  4-C ) :   0.9570 B(  4-C ,  5-H ) :   0.9912 B(  4-C ,  6-H ) :   0.9825
B(  4-C ,  7-C ) :   0.9480 B(  7-C ,  8-H ) :   0.9568 B(  7-C ,  9-H ) :   0.9755
B(  7-C , 10-N ) :   0.9302 B( 10-N , 11-H ) :   0.7988 B( 10-N , 12-C ) :   1.4785
B( 11-H , 25-O ) :   0.1527 B( 12-C , 13-N ) :   1.2200 B( 12-C , 16-N ) :   1.3686
B( 13-N , 14-H ) :   0.9599 B( 13-N , 15-H ) :   0.9850 B( 16-N , 17-H ) :   0.9893
B( 16-N , 18-H ) :   0.8431 B( 18-H , 26-O ) :   0.1155 B( 19-C , 20-H ) :   0.9695
B( 19-C , 21-H ) :   0.9551 B( 19-C , 22-C ) :   0.9470 B( 19-C , 31-C ) :   0.9077
B( 22-C , 23-C ) :   0.8528 B( 22-C , 26-O ) :   1.7820 B( 23-C , 24-O ) :   1.8923
B( 23-C , 25-O ) :   1.6153 B( 27-C , 28-H ) :   0.9934 B( 27-C , 29-C ) :   1.7953
B( 27-C , 36-C ) :   0.9392 B( 29-C , 30-H ) :   0.9631 B( 29-C , 31-C ) :   0.9482
B( 31-C , 32-C ) :   0.9829 B( 31-C , 40-C ) :   0.8134 B( 31-C , 42-O ) :  -0.1068
B( 32-C , 33-H ) :   0.9265 B( 32-C , 34-C ) :   1.8519 B( 34-C , 35-H ) :   0.9754
B( 34-C , 36-C ) :   0.9907 B( 36-C , 37-H ) :   1.0131 B( 36-C , 38-O ) :   0.9988
B( 38-O , 39-H ) :   0.9964 B( 40-C , 41-O ) :   1.8017 B( 40-C , 42-O ) :   1.8209

E(0)                                       ...  -1154.780059843
E(0)                                       ...  -1154.780059843
E(CORR)(strong-pairs)                      ...     -4.638991234
E(CORR)(weak-pairs)                        ...     -0.012245380
E(CORR)(corrected)                         ...     -4.651236614
E(TOT)                                     ...  -1159.431296458
E(CCSD(T))                                 ...  -1159.643518754
FINAL SINGLE POINT ENERGY     -1159.643518753727

DIPOLE MOMENT
-------------
                                X             Y             Z
Electronic contribution:     24.32481      -6.42593      -1.12453
Nuclear contribution   :    -34.53240      10.37142       6.16255
                        -----------------------------------------
Total Dipole Moment    :    -10.20759       3.94549       5.03802
                        -----------------------------------------
Magnitude (a.u.)       :     12.04755
Magnitude (Debye)      :     30.62243

Rotational constants in cm-1:     0.015164     0.004348     0.004257
Rotational constants in MHz :   454.593354   130.352518   127.630864

                             ****ORCA TERMINATED NORMALLY****
TOTAL RUN TIME: 0 days 13 hours 12 minutes 14 seconds 469 msec
